formula,material_id,band_gap,efermi,energy_above_hull,comp_atoms,sorted_keys_comp_atoms,comp_number
Tl3B,mp-1187632,0.0,5.53177147,0.9822966577083321,"{81: 3, 5: 1}","[5, 81]",51813
La5Si2BO13,mp-1223205,4.153599999999999,5.36827657,0.010973682380951644,"{57: 5, 14: 2, 5: 1, 8: 13}","[5, 8, 14, 57]",51813142575
Gd5Si2BO13,mp-1225149,2.6556,5.28008356,0.011494694603172206,"{64: 5, 14: 2, 5: 1, 8: 13}","[5, 8, 14, 64]",51813142645
Tb5Si2BO13,mp-1217661,4.5166,3.03413991,0.0,"{65: 5, 14: 2, 5: 1, 8: 13}","[5, 8, 14, 65]",51813142655
Dy5Si2BO13,mp-1225574,4.5395,2.99960431,0.026577750119047394,"{66: 5, 14: 2, 5: 1, 8: 13}","[5, 8, 14, 66]",51813142665
KSi5BO13,mp-1223419,0.31980000000000003,0.48350531,0.12402976925000164,"{19: 1, 14: 5, 5: 1, 8: 13}","[5, 8, 14, 19]",51813145191
K3BSb4O13,mp-558607,1.8698000000000001,2.19045625,0.0,"{19: 3, 5: 1, 51: 4, 8: 13}","[5, 8, 19, 51]",51813193514
Ca3Er3Ge2BO13,mp-41109,3.6346,1.7912494,0.0,"{20: 3, 68: 3, 32: 2, 5: 1, 8: 13}","[5, 8, 20, 32, 68]",51813203322683
NaB(S2O7)2,mp-1020655,5.5222,-1.47449236,0.0,"{11: 1, 5: 1, 16: 4, 8: 14}","[5, 8, 11, 16]",51814111164
Na2AlB(As2O7)2,mp-556195,2.7451,1.38111611,0.0056282412218342515,"{11: 2, 13: 1, 5: 1, 33: 4, 8: 14}","[5, 8, 11, 13, 33]",51814112131334
Ca4Al3CrSiBO14,mp-1227719,2.5197999999999996,2.95230221,0.048449148716863455,"{20: 4, 13: 3, 24: 1, 14: 1, 5: 1, 8: 14}","[5, 8, 13, 14, 20, 24]",51814133141204241
KB(S2O7)2,mp-1019805,5.5005,-1.5363205,0.0,"{19: 1, 5: 1, 16: 4, 8: 14}","[5, 8, 16, 19]",51814164191
NaMg14BO15,mp-1034618,1.8832000000000004,6.26262382,0.18939582693984214,"{11: 1, 12: 14, 5: 1, 8: 15}","[5, 8, 11, 12]",518151111214
KMg14BO15,mp-1035836,1.6036000000000001,6.06368163,0.25820172427859145,"{19: 1, 12: 14, 5: 1, 8: 15}","[5, 8, 12, 19]",518151214191
RbMg14BO15,mp-1034284,1.1715,6.08641605,0.30178604146627563,"{37: 1, 12: 14, 5: 1, 8: 15}","[5, 8, 12, 37]",518151214371
CsMg14BO15,mp-1099260,0.08539999999999992,5.41542347,0.3855954838633835,"{55: 1, 12: 14, 5: 1, 8: 15}","[5, 8, 12, 55]",518151214551
HfMg14BO15,mp-1033729,0.0940000000000003,6.09750168,0.2849708624596783,"{72: 1, 12: 14, 5: 1, 8: 15}","[5, 8, 12, 72]",518151214721
Ca2MnAl2Si4BO15,mp-727393,1.0655999999999999,3.7648325,0.1508652759238096,"{20: 2, 25: 1, 13: 2, 14: 4, 5: 1, 8: 15}","[5, 8, 13, 14, 20, 25]",51815132144202251
NaMg14BO16,mp-1034626,3.8059000000000003,3.99339486,0.14240945218750145,"{11: 1, 12: 14, 5: 1, 8: 16}","[5, 8, 11, 12]",518161111214
Na3BP4PbO16,mp-1221295,0.022299999999999986,0.45723895,0.10781132329999554,"{11: 3, 5: 1, 15: 4, 82: 1, 8: 16}","[5, 8, 11, 15, 82]",51816113154821
Na5B(SO4)4,mp-1197581,5.1322,0.29872301,0.0,"{11: 5, 5: 1, 16: 4, 8: 16}","[5, 8, 11, 16]",51816115164
Mg14AlBO16,mp-1036399,0.7059999999999995,7.71349163,0.21568049523437516,"{12: 14, 13: 1, 5: 1, 8: 16}","[5, 8, 12, 13]",518161214131
Mg14SiBO16,mp-1034819,0.0,8.43348864,0.2862593229166661,"{12: 14, 14: 1, 5: 1, 8: 16}","[5, 8, 12, 14]",518161214141
KMg14BO16,mp-1035823,2.5345000000000004,4.70508796,0.2176158599218745,"{19: 1, 12: 14, 5: 1, 8: 16}","[5, 8, 12, 19]",518161214191
Mg14TiBO16,mp-1034026,0.0,7.68801069,0.24112148471093686,"{12: 14, 22: 1, 5: 1, 8: 16}","[5, 8, 12, 22]",518161214221
Mg14CrBO16,mp-1033898,0.0,6.86984672,0.2293571686718705,"{12: 14, 24: 1, 5: 1, 8: 16}","[5, 8, 12, 24]",518161214241
Mg14MnBO16,mp-1036103,0.0,7.13478851,0.21769675159482915,"{12: 14, 25: 1, 5: 1, 8: 16}","[5, 8, 12, 25]",518161214251
Mg14FeBO16,mp-1035654,0.4707000000000008,7.15043936,0.1922291730468766,"{12: 14, 26: 1, 5: 1, 8: 16}","[5, 8, 12, 26]",518161214261
Mg14CoBO16,mp-1035075,1.1512000000000002,6.60994897,0.1884017265104161,"{12: 14, 27: 1, 5: 1, 8: 16}","[5, 8, 12, 27]",518161214271
Mg14GaBO16,mp-1033774,0.2353999999999994,7.47462503,0.2422996922395848,"{12: 14, 31: 1, 5: 1, 8: 16}","[5, 8, 12, 31]",518161214311
RbMg14BO16,mp-1034231,1.3453,5.61505826,0.26839446468749983,"{37: 1, 12: 14, 5: 1, 8: 16}","[5, 8, 12, 37]",518161214371
YMg14BO16,mp-1035864,0.5365000000000002,7.39490002,0.259514050634551,"{39: 1, 12: 14, 5: 1, 8: 16}","[5, 8, 12, 39]",518161214391
Mg14BSbO16,mp-1033732,0.0,8.29040175,0.3418275533984394,"{12: 14, 5: 1, 51: 1, 8: 16}","[5, 8, 12, 51]",518161214511
CsMg14BO16,mp-1099218,0.0,6.68682646,0.3375510503125003,"{55: 1, 12: 14, 5: 1, 8: 16}","[5, 8, 12, 55]",518161214551
LaMg14BO16,mp-1034856,0.5105000000000004,7.51875152,0.31743759104829117,"{57: 1, 12: 14, 5: 1, 8: 16}","[5, 8, 12, 57]",518161214571
CeMg14BO16,mp-1034664,0.0,8.38934425,0.3080241071629102,"{58: 1, 12: 14, 5: 1, 8: 16}","[5, 8, 12, 58]",518161214581
HfMg14BO16,mp-1033686,0.0,8.29077641,0.295969704992185,"{72: 1, 12: 14, 5: 1, 8: 16}","[5, 8, 12, 72]",518161214721
Mg14BWO16,mp-1033759,0.31730000000000036,7.62000814,0.3096823673437479,"{12: 14, 5: 1, 74: 1, 8: 16}","[5, 8, 12, 74]",518161214741
Mg14BiBO16,mp-1033747,0.7358000000000002,7.08740524,0.2560687185156256,"{12: 14, 83: 1, 5: 1, 8: 16}","[5, 8, 12, 83]",518161214831
Ca2MnAl2Si4BO16,mp-1204491,0.0,4.30347405,0.07597167997328746,"{20: 2, 25: 1, 13: 2, 14: 4, 5: 1, 8: 16}","[5, 8, 13, 14, 20, 25]",51816132144202251
Ca2Al2FeSi4BO16,mp-734098,1.0728,4.0893501,0.06457338640487009,"{20: 2, 13: 2, 26: 1, 14: 4, 5: 1, 8: 16}","[5, 8, 13, 14, 20, 26]",51816132144202261
K5B(SO4)4,mp-1019797,5.2517,-0.50478606,0.0,"{19: 5, 5: 1, 16: 4, 8: 16}","[5, 8, 16, 19]",51816164195
La7BP2O17,mp-1212336,4.4099,4.95168693,0.011114878209879109,"{57: 7, 5: 1, 15: 2, 8: 17}","[5, 8, 15, 57]",51817152577
Pr7BP2O17,mp-554964,4.433299999999999,2.27959896,0.0,"{59: 7, 5: 1, 15: 2, 8: 17}","[5, 8, 15, 59]",51817152597
Sm7BP2O17,mp-558842,4.5175,2.2616742,0.005146792777775744,"{62: 7, 5: 1, 15: 2, 8: 17}","[5, 8, 15, 62]",51817152627
Dy7BP2O17,mp-1213462,4.799099999999999,2.48323321,0.026668008611109073,"{66: 7, 5: 1, 15: 2, 8: 17}","[5, 8, 15, 66]",51817152667
La7V2BO17,mp-1212487,2.8406000000000002,4.3183553,0.012944391608547434,"{57: 7, 23: 2, 5: 1, 8: 17}","[5, 8, 23, 57]",51817232577
Nd7V2BO17,mp-1210883,2.7428999999999997,1.88549665,0.02922265879629471,"{60: 7, 23: 2, 5: 1, 8: 17}","[5, 8, 23, 60]",51817232607
La7Cr2BO17,mp-1212632,1.2771000000000008,4.61783772,0.020116119139656163,"{57: 7, 24: 2, 5: 1, 8: 17}","[5, 8, 24, 57]",51817242577
Al7Si3BO18,mp-1019381,4.581100000000001,4.85223275,0.018661483304594384,"{13: 7, 14: 3, 5: 1, 8: 18}","[5, 8, 13, 14]",51818137143
CaZrAl9BO18,mp-559642,4.8628,4.71819063,0.0031830118333289192,"{20: 1, 40: 1, 13: 9, 5: 1, 8: 18}","[5, 8, 13, 20, 40]",51818139201401
Al9Si2BO19,mp-1229075,4.973700000000001,3.24023366,0.01426673193548389,"{13: 9, 14: 2, 5: 1, 8: 19}","[5, 8, 13, 14]",51819139142
NaBOF2,mp-1194338,6.3006,-1.25626771,0.0,"{11: 1, 5: 1, 8: 1, 9: 2}","[5, 8, 9, 11]",518192111
KBOF2,mp-1195407,6.059799999999999,-1.28264036,0.0,"{19: 1, 5: 1, 8: 1, 9: 2}","[5, 8, 9, 19]",518192191
BaBOF3,mp-13680,5.8892999999999995,0.352472,0.09583479538461415,"{56: 1, 5: 1, 8: 1, 9: 3}","[5, 8, 9, 56]",518193561
Hg2BOF4,mp-1202687,0.0,-2.26444999,0.11038384593749839,"{80: 2, 5: 1, 8: 1, 9: 4}","[5, 8, 9, 80]",518194802
BiBOF4,mp-1147533,3.2024999999999997,0.91569084,0.13111067591269698,"{83: 1, 5: 1, 8: 1, 9: 4}","[5, 8, 9, 83]",518194831
Sr6B(PO4)5,mp-6044,4.8124,1.17067629,0.0,"{38: 6, 5: 1, 15: 5, 8: 20}","[5, 8, 15, 38]",51820155386
BP5(Pb3O10)2,mp-1228851,3.7876,6.07616842,0.007224506822922194,"{5: 1, 15: 5, 82: 6, 8: 20}","[5, 8, 15, 82]",51820155826
BAs5(Pb3O10)2,mp-622018,2.9414000000000007,1.90185,0.0,"{5: 1, 33: 5, 82: 6, 8: 20}","[5, 8, 33, 82]",51820335826
Bi12BO20,mp-769060,0.0,4.63313725,0.055663798219703686,"{83: 12, 5: 1, 8: 20}","[5, 8, 83]",518208312
NaBO2,mp-3889,4.1041,0.75070458,0.0,"{11: 1, 5: 1, 8: 2}","[5, 8, 11]",5182111
Na6BSe5O21,mp-1197672,0.012400000000000022,-0.30572733,0.07613489484848746,"{11: 6, 5: 1, 34: 5, 8: 21}","[5, 8, 11, 34]",51821116345
KBO2,mp-3919,4.1255,-0.23014697,0.0,"{19: 1, 5: 1, 8: 2}","[5, 8, 19]",5182191
CuBO2,mp-1096940,1.4613999999999994,7.03455898,0.6464721454166629,"{29: 1, 5: 1, 8: 2}","[5, 8, 29]",5182291
BPb3,mp-1183296,0.0,6.17950256,0.9857691827083315,"{5: 1, 82: 3}","[5, 82]",51823
Lu4V5B18,mp-1223330,0.0,6.62037811,0.0,"{71: 4, 23: 5, 5: 18}","[5, 23, 71]",518235714
RbBO2,mp-31358,3.9289,-0.33447896,0.0,"{37: 1, 5: 1, 8: 2}","[5, 8, 37]",5182371
La8Al7BO24,mp-997588,3.5096,8.04037019,0.11948447737500878,"{57: 8, 13: 7, 5: 1, 8: 24}","[5, 8, 13, 57]",51824137578
Zr6B(Cl3O4)6,mp-1203780,1.2521,-0.56302635,0.7965262856989774,"{40: 6, 5: 1, 17: 18, 8: 24}","[5, 8, 17, 40]",518241718406
AgBO2,mp-559803,1.2098999999999998,1.33843443,0.009954755390623404,"{47: 1, 5: 1, 8: 2}","[5, 8, 47]",5182471
CsBO2,mp-561725,3.8457000000000003,0.29175144,0.0,"{55: 1, 5: 1, 8: 2}","[5, 8, 55]",5182551
Nd5(FeB)18,mp-650968,0.0,5.85357284,0.0009410089939017041,"{60: 5, 26: 18, 5: 18}","[5, 26, 60]",5182618605
TlBO2,mp-28244,2.8659000000000003,1.66833173,0.0,"{81: 1, 5: 1, 8: 2}","[5, 8, 81]",5182811
Zr8Ni61B18,mp-1216773,0.000700000000000145,7.8643693,0.017144168735655718,"{40: 8, 28: 61, 5: 18}","[5, 28, 40]",5182861408
BO2F3,mp-1182442,0.0,-2.19853458,0.011129303958335335,"{5: 1, 8: 2, 9: 3}","[5, 8, 9]",518293
BCl(OF2)2,mp-557856,1.6825999999999999,-3.03938124,0.0,"{5: 1, 17: 1, 8: 2, 9: 4}","[5, 8, 9, 17]",518294171
Hg3BI2(OF2)2,mp-1212477,0.2261,-0.18020754,0.046033311002604105,"{80: 3, 5: 1, 53: 2, 8: 2, 9: 4}","[5, 8, 9, 53, 80]",518294532803
BO3,mp-1214764,0.0,-2.85999203,0.833578560052084,"{5: 1, 8: 3}","[5, 8]",5183
BiB,mp-1006880,0.09220000000000006,5.9875859,0.7965304954166665,"{83: 1, 5: 1}","[5, 83]",51831
NaMg30BO31,mp-1039849,2.3338,6.1418692,0.0889244805576972,"{11: 1, 12: 30, 5: 1, 8: 31}","[5, 8, 11, 12]",518311111230
NaMgBO3,mp-561536,3.5852,2.80169979,0.005652540833334996,"{11: 1, 12: 1, 5: 1, 8: 3}","[5, 8, 11, 12]",5183111121
NaCaBO3,mp-1221129,3.8471,1.56910001,0.0,"{11: 1, 20: 1, 5: 1, 8: 3}","[5, 8, 11, 20]",5183111201
NaMnBO3,mp-756091,2.1658,2.34805623,0.03622802249999868,"{11: 1, 25: 1, 5: 1, 8: 3}","[5, 8, 11, 25]",5183111251
NaFeBO3,mp-1101655,1.9134000000000002,2.38425159,0.025703537916666797,"{11: 1, 26: 1, 5: 1, 8: 3}","[5, 8, 11, 26]",5183111261
NaCoBO3,mp-1101692,1.4057,2.32273682,0.15974208736111173,"{11: 1, 27: 1, 5: 1, 8: 3}","[5, 8, 11, 27]",5183111271
NaNiBO3,mp-755942,3.3028999999999997,3.13246657,0.05274862749999887,"{11: 1, 28: 1, 5: 1, 8: 3}","[5, 8, 11, 28]",5183111281
NaSrBO3,mp-556695,3.8575,1.69152283,0.0,"{11: 1, 38: 1, 5: 1, 8: 3}","[5, 8, 11, 38]",5183111381
BaNaBO3,mp-6660,3.6487,1.55293799,0.0,"{56: 1, 11: 1, 5: 1, 8: 3}","[5, 8, 11, 56]",5183111561
KNa2BO3,mp-8263,2.7985,1.12999384,0.0,"{19: 1, 11: 2, 5: 1, 8: 3}","[5, 8, 11, 19]",5183112191
KMg30BO31,mp-1040287,1.9818000000000007,6.32827183,0.1174040616291494,"{19: 1, 12: 30, 5: 1, 8: 31}","[5, 8, 12, 19]",518311230191
RbMg30BO31,mp-1039725,1.7878999999999996,6.49751449,0.1363460802453096,"{37: 1, 12: 30, 5: 1, 8: 31}","[5, 8, 12, 37]",518311230371
CsMg30BO31,mp-1098613,1.4778000000000011,6.77574856,0.1625275633296024,"{55: 1, 12: 30, 5: 1, 8: 31}","[5, 8, 12, 55]",518311230551
HfMg30BO31,mp-1038485,0.8494999999999999,6.37633691,0.1329557596230142,"{72: 1, 12: 30, 5: 1, 8: 31}","[5, 8, 12, 72]",518311230721
RbNa2BO3,mp-8872,2.9274999999999998,1.38380392,0.0,"{37: 1, 11: 2, 5: 1, 8: 3}","[5, 8, 11, 37]",5183112371
CsNa2BO3,mp-8871,3.2483,1.8788196,0.0,"{55: 1, 11: 2, 5: 1, 8: 3}","[5, 8, 11, 55]",5183112551
Na3BO3,mp-30975,2.9485,1.00538155,0.0,"{11: 3, 5: 1, 8: 3}","[5, 8, 11]",5183113
MgBO3,mp-1199652,0.18879999999999997,0.91993811,0.18251612812500184,"{12: 1, 5: 1, 8: 3}","[5, 8, 12]",5183121
KMgBO3,mp-1191101,4.6163,0.20745361,0.0,"{19: 1, 12: 1, 5: 1, 8: 3}","[5, 8, 12, 19]",5183121191
RbMgBO3,mp-1020633,4.3738,0.39942524,0.0,"{37: 1, 12: 1, 5: 1, 8: 3}","[5, 8, 12, 37]",5183121371
CsMgBO3,mp-1019721,3.1495999999999995,4.77959203,0.0024359532291668984,"{55: 1, 12: 1, 5: 1, 8: 3}","[5, 8, 12, 55]",5183121551
AlBO3,mp-8110,5.8392,4.87077884,0.030454673153858636,"{13: 1, 5: 1, 8: 3}","[5, 8, 13]",5183131
SiBO3,mp-972839,0.0,5.53951206,1.9055840889791638,"{14: 1, 5: 1, 8: 3}","[5, 8, 14]",5183141
Sr3BPO3,mp-9702,2.0101,2.62252477,0.0,"{38: 3, 5: 1, 15: 1, 8: 3}","[5, 8, 15, 38]",5183151383
Ba3BPO3,mp-9712,1.4667000000000003,2.66961217,0.0,"{56: 3, 5: 1, 15: 1, 8: 3}","[5, 8, 15, 56]",5183151563
Sm3B(SO)3,mp-1105337,1.5301000000000005,5.0333151,0.0,"{62: 3, 5: 1, 16: 3, 8: 3}","[5, 8, 16, 62]",5183163623
Ca2BClO3,mp-554263,4.576599999999999,1.56352325,0.0,"{20: 2, 5: 1, 17: 1, 8: 3}","[5, 8, 17, 20]",5183171202
KZn2BCl2O3,mp-1078186,3.7081999999999997,-1.36308038,0.0,"{19: 1, 30: 2, 5: 1, 17: 2, 8: 3}","[5, 8, 17, 19, 30]",5183172191302
CaBO3,mp-1084760,0.3587,0.14608872,0.1007924086250025,"{20: 1, 5: 1, 8: 3}","[5, 8, 20]",5183201
ScBO3,mp-8697,4.118,2.18601023,0.0,"{21: 1, 5: 1, 8: 3}","[5, 8, 21]",5183211
NaMg30BO32,mp-1039794,4.107099999999999,3.8591741,0.07001299703125063,"{11: 1, 12: 30, 5: 1, 8: 32}","[5, 8, 11, 12]",518321111230
Mg30AlBO32,mp-1037955,2.4707999999999997,6.07660059,0.10649153683593848,"{12: 30, 13: 1, 5: 1, 8: 32}","[5, 8, 12, 13]",518321230131
Mg30SiBO32,mp-1039876,0.7318000000000007,7.77741572,0.1373731020833331,"{12: 30, 14: 1, 5: 1, 8: 32}","[5, 8, 12, 14]",518321230141
KMg30BO32,mp-1040205,4.0212,3.79345293,0.10202165761718707,"{19: 1, 12: 30, 5: 1, 8: 32}","[5, 8, 12, 19]",518321230191
Mg30TiBO32,mp-1040308,0.5093000000000005,7.34269326,0.12180298376171894,"{12: 30, 22: 1, 5: 1, 8: 32}","[5, 8, 12, 22]",518321230221
Mg30CrBO32,mp-1038513,0.17459999999999987,7.76953374,0.11525592027344089,"{12: 30, 24: 1, 5: 1, 8: 32}","[5, 8, 12, 24]",518321230241
Mg30MnBO32,mp-1098739,0.4509999999999996,6.90157793,0.11403235751616325,"{12: 30, 25: 1, 5: 1, 8: 32}","[5, 8, 12, 25]",518321230251
Mg30FeBO32,mp-1037542,0.0,8.43958568,0.10910870480468748,"{12: 30, 26: 1, 5: 1, 8: 32}","[5, 8, 12, 26]",518321230261
Mg30CoBO32,mp-1036995,2.088000000000001,6.04581671,0.098142346067708,"{12: 30, 27: 1, 5: 1, 8: 32}","[5, 8, 12, 27]",518321230271
Mg30GaBO32,mp-1038427,2.1608,5.9550763,0.12087756830729113,"{12: 30, 31: 1, 5: 1, 8: 32}","[5, 8, 12, 31]",518321230311
RbMg30BO32,mp-1039672,3.8516,3.78884534,0.12229805093750024,"{37: 1, 12: 30, 5: 1, 8: 32}","[5, 8, 12, 37]",518321230371
YMg30BO32,mp-1037198,2.0667,6.20731015,0.12900660875477232,"{39: 1, 12: 30, 5: 1, 8: 32}","[5, 8, 12, 39]",518321230391
Mg30BSbO32,mp-1038429,2.2125999999999992,6.53089651,0.17311975935546897,"{12: 30, 5: 1, 51: 1, 8: 32}","[5, 8, 12, 51]",518321230511
CsMg30BO32,mp-1039625,3.3763999999999994,4.29253842,0.15116434718749794,"{55: 1, 12: 30, 5: 1, 8: 32}","[5, 8, 12, 55]",518321230551
LaMg30BO32,mp-1039913,1.9868000000000006,6.35529485,0.15648580130539624,"{57: 1, 12: 30, 5: 1, 8: 32}","[5, 8, 12, 57]",518321230571
CeMg30BO32,mp-1039958,0.003200000000001424,8.29019518,0.1511148860814524,"{58: 1, 12: 30, 5: 1, 8: 32}","[5, 8, 12, 58]",518321230581
HfMg30BO32,mp-1038450,0.011200000000000543,8.80949271,0.15271575843359209,"{72: 1, 12: 30, 5: 1, 8: 32}","[5, 8, 12, 72]",518321230721
Mg30BWO32,mp-1038510,2.0027999999999997,6.29130377,0.15278649976562342,"{12: 30, 5: 1, 74: 1, 8: 32}","[5, 8, 12, 74]",518321230741
Mg30BiBO32,mp-1098202,1.877699999999999,6.36205393,0.11975941207031315,"{12: 30, 83: 1, 5: 1, 8: 32}","[5, 8, 12, 83]",518321230831
TiBO3,mp-9716,0.0,6.04554566,0.07294352553333283,"{22: 1, 5: 1, 8: 3}","[5, 8, 22]",5183221
VBO3,mp-18946,1.8746999999999998,3.48741764,0.0,"{23: 1, 5: 1, 8: 3}","[5, 8, 23]",5183231
CrBO3,mp-19299,0.0,5.15430328,0.0,"{24: 1, 5: 1, 8: 3}","[5, 8, 24]",5183241
MnBO3,mp-1289597,1.3314,2.51222367,0.020367710552088525,"{25: 1, 5: 1, 8: 3}","[5, 8, 25]",5183251
FeBO3,mp-19097,1.4815999999999998,2.14937788,0.0,"{26: 1, 5: 1, 8: 3}","[5, 8, 26]",5183261
CoBO3,mp-757083,0.1471,0.64869966,0.1768175734722197,"{27: 1, 5: 1, 8: 3}","[5, 8, 27]",5183271
CuBO3,mp-1184042,0.0,5.87585724,1.1187388422916662,"{29: 1, 5: 1, 8: 3}","[5, 8, 29]",5183291
ZnBO3,mp-971704,0.0,4.80470613,1.1254540567916669,"{30: 1, 5: 1, 8: 3}","[5, 8, 30]",5183301
GaBO3,mp-1078259,3.8638999999999997,2.72859439,0.0,"{31: 1, 5: 1, 8: 3}","[5, 8, 31]",5183311
GeBO3,mp-973738,0.0,7.02197663,1.3230400194166663,"{32: 1, 5: 1, 8: 3}","[5, 8, 32]",5183321
Ba3BAsO3,mp-9793,1.5232999999999999,2.42047753,0.0,"{56: 3, 5: 1, 33: 1, 8: 3}","[5, 8, 33, 56]",5183331563
Ba3B(BrO)3,mp-1200496,3.7561000000000004,4.3866251,0.0,"{56: 3, 5: 1, 35: 3, 8: 3}","[5, 8, 35, 56]",5183353563
RbBO3,mp-975385,0.0,2.12918879,1.500836095833332,"{37: 1, 5: 1, 8: 3}","[5, 8, 37]",5183371
SrBO3,mp-1189840,0.45239999999999997,0.52435916,0.06289907899997527,"{38: 1, 5: 1, 8: 3}","[5, 8, 38]",5183381
YBO3,mp-29205,5.1696,2.2874432,0.0,"{39: 1, 5: 1, 8: 3}","[5, 8, 39]",5183391
ZrBO3,mp-1188026,0.0,9.22511927,1.1624291193000076,"{40: 1, 5: 1, 8: 3}","[5, 8, 40]",5183401
BPdO3,mp-1183242,0.0,5.60803689,1.2187017236666673,"{5: 1, 46: 1, 8: 3}","[5, 8, 46]",5183461
AgBO3,mp-780275,0.0,1.30686632,0.0853834544166654,"{47: 1, 5: 1, 8: 3}","[5, 8, 47]",5183471
Ag3BO3,mp-561550,0.8717000000000001,1.15331678,0.015885402410714455,"{47: 3, 5: 1, 8: 3}","[5, 8, 47]",5183473
CdBO3,mp-1183631,0.0,4.18544547,1.0214596801250018,"{48: 1, 5: 1, 8: 3}","[5, 8, 48]",5183481
CsCdBO3,mp-1191636,1.6461999999999999,0.82753733,0.0,"{55: 1, 48: 1, 5: 1, 8: 3}","[5, 8, 48, 55]",5183481551
InBO3,mp-7027,2.6556,3.9195389,0.0,"{49: 1, 5: 1, 8: 3}","[5, 8, 49]",5183491
SnBO3,mp-772724,2.2845999999999997,2.67250399,0.09052466656250147,"{50: 1, 5: 1, 8: 3}","[5, 8, 50]",5183501
BSbO3,mp-755829,3.4785000000000004,1.8078899,0.04718943866666514,"{5: 1, 51: 1, 8: 3}","[5, 8, 51]",5183511
BTeO3,mp-1183194,0.0,11.12084581,1.2496407245833314,"{5: 1, 52: 1, 8: 3}","[5, 8, 52]",5183521
Cs3BO3,mp-1019608,2.4689000000000005,1.97458868,0.0,"{55: 3, 5: 1, 8: 3}","[5, 8, 55]",5183553
BaBO3,mp-1214407,0.0,3.35788292,1.2538978322499972,"{56: 1, 5: 1, 8: 3}","[5, 8, 56]",5183561
LaBO3,mp-8216,4.500700000000001,4.40973767,0.0,"{57: 1, 5: 1, 8: 3}","[5, 8, 57]",5183571
CeBO3,mp-20882,0.058699999999999974,7.33696603,0.0,"{58: 1, 5: 1, 8: 3}","[5, 8, 58]",5183581
PrBO3,mp-861504,4.6526,2.28260013,0.0,"{59: 1, 5: 1, 8: 3}","[5, 8, 59]",5183591
NdBO3,mp-7238,4.6987,2.29857216,0.0,"{60: 1, 5: 1, 8: 3}","[5, 8, 60]",5183601
SmBO3,mp-8627,5.2713,1.56970644,0.0,"{62: 1, 5: 1, 8: 3}","[5, 8, 62]",5183621
EuBO3,mp-22030,0.0,1.13515103,0.023315181666667684,"{63: 1, 5: 1, 8: 3}","[5, 8, 63]",5183631
GdBO3,mp-1194303,3.1001000000000003,5.09163173,0.0,"{64: 1, 5: 1, 8: 3}","[5, 8, 64]",5183641
TbBO3,mp-1217607,4.4297,6.1598831,0.0,"{65: 1, 5: 1, 8: 3}","[5, 8, 65]",5183651
DyBO3,mp-12315,5.3594,1.85771408,0.0,"{66: 1, 5: 1, 8: 3}","[5, 8, 66]",5183661
HoBO3,mp-752713,5.4365,2.04266163,0.0,"{67: 1, 5: 1, 8: 3}","[5, 8, 67]",5183671
ErBO3,mp-1194043,5.6534,2.09498543,0.0,"{68: 1, 5: 1, 8: 3}","[5, 8, 68]",5183681
TmBO3,mp-760484,4.254,1.78499519,0.030025047600002353,"{69: 1, 5: 1, 8: 3}","[5, 8, 69]",5183691
LuBO3,mp-7560,5.3023,1.45666768,0.0,"{71: 1, 5: 1, 8: 3}","[5, 8, 71]",5183711
HfBO3,mp-1184625,0.0,9.77363453,1.3355054685000045,"{72: 1, 5: 1, 8: 3}","[5, 8, 72]",5183721
BOsO3,mp-984553,0.0,8.05780128,1.7791229256666652,"{5: 1, 76: 1, 8: 3}","[5, 8, 76]",5183761
BIrO3,mp-1183221,0.0,7.91480388,1.6729221789166662,"{5: 1, 77: 1, 8: 3}","[5, 8, 77]",5183771
BPtO3,mp-1183277,0.0,6.88017627,1.5070407601666673,"{5: 1, 78: 1, 8: 3}","[5, 8, 78]",5183781
BAuO3,mp-1183212,0.0,5.50818701,1.3272232336666683,"{5: 1, 79: 1, 8: 3}","[5, 8, 79]",5183791
TlBO3,mp-1187494,0.0,7.47849183,1.1100852811666684,"{81: 1, 5: 1, 8: 3}","[5, 8, 81]",5183811
Tl3BO3,mp-4584,1.303,3.08625003,0.0,"{81: 3, 5: 1, 8: 3}","[5, 8, 81]",5183813
Ba2SrB18,mp-1228370,0.8369000000000004,3.97131429,0.0021858366666682727,"{56: 2, 38: 1, 5: 18}","[5, 38, 56]",518381562
BPbO3,mp-984554,0.0,7.88837838,1.0795439214285576,"{5: 1, 82: 1, 8: 3}","[5, 8, 82]",5183821
BiBO3,mp-31250,3.0096,3.33581289,0.0,"{83: 1, 5: 1, 8: 3}","[5, 8, 83]",5183831