formula,material_id,band_gap,efermi,energy_above_hull,comp_atoms,sorted_keys_comp_atoms,comp_number
Na2Ca3B5H2S2ClO18,mp-707645,5.481,1.10791672,0.0016932169805068398,"{11: 2, 20: 3, 5: 5, 1: 2, 16: 2, 17: 1, 8: 18}","[1, 5, 8, 11, 16, 17, 20]",1255818112162171203
KB5H2O9,mp-1197999,5.7166999999999994,4.45530837,0.003602644852949588,"{19: 1, 5: 5, 1: 2, 8: 9}","[1, 5, 8, 19]",125589191
B9H25C4NCl,mp-1199287,3.6529,1.98061462,0.17360790595192288,"{5: 9, 1: 25, 6: 4, 7: 1, 17: 1}","[1, 5, 6, 7, 17]",125596471171
K2B6H2O11,mp-558951,5.3623,-0.77450055,0.0010260814696305687,"{19: 2, 5: 6, 1: 2, 8: 11}","[1, 5, 8, 19]",1256811192
Cu3B6H2O13,mp-1203923,0.3612000000000002,3.38256642,0.042403372731486755,"{29: 3, 5: 6, 1: 2, 8: 13}","[1, 5, 8, 29]",1256813293
Sr3B6H2O13,mp-1201690,5.3122,6.61917638,0.0,"{38: 3, 5: 6, 1: 2, 8: 13}","[1, 5, 8, 38]",1256813383
Ba3B6H2O13,mp-1199009,5.0891,6.27078581,0.0,"{56: 3, 5: 6, 1: 2, 8: 13}","[1, 5, 8, 56]",1256813563
KB6H2OF6,mp-1201717,2.6705,1.74862663,0.1725379660575843,"{19: 1, 5: 6, 1: 2, 8: 1, 9: 6}","[1, 5, 8, 9, 19]",12568196191
Ca2B8H2O15,mp-706291,5.576099999999999,0.78525889,0.0,"{20: 2, 5: 8, 1: 2, 8: 15}","[1, 5, 8, 20]",1258815202
K4Ge2B8H2O19,mp-1203238,4.1044,-0.02003536,0.001057666059971929,"{19: 4, 32: 2, 5: 8, 1: 2, 8: 19}","[1, 5, 8, 19, 32]",1258819194322
Li2B12H26O7,mp-699473,5.2083,-2.28826116,0.15148618318262752,"{3: 2, 5: 12, 1: 26, 8: 7}","[1, 3, 5, 8]",1263251287
AgB10H26C6N,mp-738633,3.8864,-0.81929027,0.14357852718434216,"{47: 1, 5: 10, 1: 26, 6: 6, 7: 1}","[1, 5, 6, 7, 47]",1265106671471
MnB10(H13O4)2,mp-1196077,4.1228,-1.40130687,0.18864719240123495,"{25: 1, 5: 10, 1: 26, 8: 8}","[1, 5, 8, 25]",12651088251
FeB10(H13O4)2,mp-1203859,4.3224,-1.28685285,0.1950929528626526,"{26: 1, 5: 10, 1: 26, 8: 8}","[1, 5, 8, 26]",12651088261
CoB10(H13O4)2,mp-1198299,2.7696,-1.22081012,0.20904356451543205,"{27: 1, 5: 10, 1: 26, 8: 8}","[1, 5, 8, 27]",12651088271
NiB10(H13O4)2,mp-1198697,3.8413,-1.15765767,0.2143382230154307,"{28: 1, 5: 10, 1: 26, 8: 8}","[1, 5, 8, 28]",12651088281
ZnB10(H13O4)2,mp-1201107,4.006,-1.43249975,0.2052228878209874,"{30: 1, 5: 10, 1: 26, 8: 8}","[1, 5, 8, 30]",12651088301
B20H26O,mp-28092,1.0827,-1.20292376,0.20409366823877306,"{5: 20, 1: 26, 8: 1}","[1, 5, 8]",12652081
B2H26C8N20Cl2O,mp-1204048,4.1207,-0.38209211,0.0,"{5: 2, 1: 26, 6: 8, 7: 20, 17: 2, 8: 1}","[1, 5, 6, 7, 8, 17]",126526872081172
B13H27C6S3F4,mp-1201750,5.3274,2.90525271,0.03562818250698552,"{5: 13, 1: 27, 6: 6, 16: 3, 9: 4}","[1, 5, 6, 9, 16]",1275136694163
KSi2BP(H3C)9,mp-1196639,2.7658,0.01868994,0.07167157179770722,"{19: 1, 14: 2, 5: 1, 15: 1, 1: 27, 6: 9}","[1, 5, 6, 14, 15, 19]",1275169142151191
RbSi2BP(H3C)9,mp-1205289,2.6447999999999996,0.09989702,0.07035588343098276,"{37: 1, 14: 2, 5: 1, 15: 1, 1: 27, 6: 9}","[1, 5, 6, 14, 15, 37]",1275169142151371
YB3H27N5,mp-1194737,4.8121,1.95441503,0.05423195510415901,"{39: 1, 5: 3, 1: 27, 7: 5}","[1, 5, 7, 39]",1275375391
CoB12H28(NO15)2,mp-735475,0.6787999999999998,1.08011831,0.028619566392697138,"{27: 1, 5: 12, 1: 28, 7: 2, 8: 30}","[1, 5, 7, 8, 27]",12851272830271
Si2BPH28C9,mp-1199409,5.16,-2.94154169,0.05943269180423538,"{14: 2, 5: 1, 15: 1, 1: 28, 6: 9}","[1, 5, 6, 14, 15]",1285169142151
MgB6H28(C2O)2,mp-1200370,6.0823,-3.28324152,0.22808995250896924,"{12: 1, 5: 6, 1: 28, 6: 4, 8: 2}","[1, 5, 6, 8, 12]",128566482121
K2SrB8(HO)28,mp-1198667,5.1198,-1.0948352,0.016271574916046916,"{19: 2, 38: 1, 5: 8, 1: 28, 8: 28}","[1, 5, 8, 19, 38]",12858828192381
Si2BPH29C9N,mp-1197645,3.5157999999999996,-1.02043098,0.10202570433646674,"{14: 2, 5: 1, 15: 1, 1: 29, 6: 9, 7: 1}","[1, 5, 6, 7, 14, 15]",129516971142151
Si2BAsH29C9N,mp-1203624,3.354,-1.1387297,0.10887829973929186,"{14: 2, 5: 1, 33: 1, 1: 29, 6: 9, 7: 1}","[1, 5, 6, 7, 14, 33]",129516971142331
B20H30C2S,mp-1196291,2.5779,-1.62482489,0.11348255960350428,"{5: 20, 1: 30, 6: 2, 16: 1}","[1, 5, 6, 16]",13052062161
B20H30C3N2,mp-1201695,3.0457,1.64621231,0.16756586399533901,"{5: 20, 1: 30, 6: 3, 7: 2}","[1, 5, 6, 7]",1305206372
AlB3(H5N)6,mp-1205240,5.5390999999999995,-2.65663049,0.008373726250001212,"{13: 1, 5: 3, 1: 30, 7: 6}","[1, 5, 7, 13]",1305376131
YB3(H5N)6,mp-1195997,4.279,-2.69765987,0.03869354009375847,"{39: 1, 5: 3, 1: 30, 7: 6}","[1, 5, 7, 39]",1305376391
CoB10H31C18O,mp-1204268,1.8064,-1.18881116,0.18456957834016396,"{27: 1, 5: 10, 1: 31, 6: 18, 8: 1}","[1, 5, 6, 8, 27]",13151061881271
CsNaB10H31N7,mp-1199766,2.8805,-1.66915801,0.17241287146000328,"{55: 1, 11: 1, 5: 10, 1: 31, 7: 7}","[1, 5, 7, 11, 55]",13151077111551
Mg4B8H31,mp-1201512,1.439,-2.47157698,0.04362368323643384,"{12: 4, 5: 8, 1: 31}","[1, 5, 12]",13158124
FeB18H32(C4S)2,mp-758974,2.0301,0.56010097,0.10085114694737651,"{26: 1, 5: 18, 1: 32, 6: 8, 16: 2}","[1, 5, 6, 16, 26]",13251868162261
CrB6H32(C4O)2,mp-1201768,2.7018,1.03981915,0.24862689319090414,"{24: 1, 5: 6, 1: 32, 6: 8, 8: 2}","[1, 5, 6, 8, 24]",132566882241
Mg3CoB8P8(H8O13)4,mp-1223058,3.5011,4.03502699,0.014947593421895888,"{12: 3, 27: 1, 5: 8, 15: 8, 1: 32, 8: 52}","[1, 5, 8, 12, 15, 27]",13258852123158271
Sr2LiB10H3O19,mp-1218822,5.3061,6.09976755,0.0,"{38: 2, 3: 1, 5: 10, 1: 3, 8: 19}","[1, 3, 5, 8, 38]",1331510819382
LiGaBH3O5,mp-1222409,4.4692,2.52365081,0.0,"{3: 1, 31: 1, 5: 1, 1: 3, 8: 5}","[1, 3, 5, 8, 31]",13315185311
LiB2H3O5,mp-24560,4.8897,-0.85295765,0.011856289507585771,"{3: 1, 5: 2, 1: 3, 8: 5}","[1, 3, 5, 8]",13315285
Li(BH)3,mp-1211289,4.7883000000000004,3.9363733,0.14071343329081287,"{3: 1, 5: 3, 1: 3}","[1, 3, 5]",133153
LiB3P(HO3)3,mp-850414,5.7251,-0.90392444,0.0022070919362802144,"{3: 1, 5: 3, 15: 1, 1: 3, 8: 9}","[1, 3, 5, 8, 15]",13315389151
LiCrB3(HO3)3,mp-778018,1.4087,0.22152786,0.06283315588613014,"{3: 1, 24: 1, 5: 3, 1: 3, 8: 9}","[1, 3, 5, 8, 24]",13315389241
LiMnB3(HO3)3,mp-778282,1.5952,-0.05589023,0.09587038033465145,"{3: 1, 25: 1, 5: 3, 1: 3, 8: 9}","[1, 3, 5, 8, 25]",13315389251
LiB3H3SeO9,mp-849266,0.2127,0.95199425,0.09531723688725169,"{3: 1, 5: 3, 1: 3, 34: 1, 8: 9}","[1, 3, 5, 8, 34]",13315389341
Li2B12H33N7,mp-1204768,4.5949,-2.64932816,0.11361694432870362,"{3: 2, 5: 12, 1: 33, 7: 7}","[1, 3, 5, 7]",1333251277
B10H33C10I,mp-1195030,2.955,0.51909969,0.075914916246143,"{5: 10, 1: 33, 6: 10, 53: 1}","[1, 5, 6, 53]",133510610531
LaB12H33Cl2O11,mp-1225247,1.1464999999999999,-0.35606223,0.2764488662970761,"{57: 1, 5: 12, 1: 33, 17: 2, 8: 11}","[1, 5, 8, 17, 57]",133512811172571
YB3H33N7,mp-1194847,5.4364,-3.28089532,0.005664045596598832,"{39: 1, 5: 3, 1: 33, 7: 7}","[1, 5, 7, 39]",1335377391
Be2BH3O5,mp-1227442,5.6261,-0.45647157,0.0,"{4: 2, 5: 1, 1: 3, 8: 5}","[1, 4, 5, 8]",13425185
LiBH34(C3N)4,mp-1195276,4.2338000000000005,-2.12853182,0.16512383935095887,"{3: 1, 5: 1, 1: 34, 6: 12, 7: 4}","[1, 3, 5, 6, 7]",134315161274
Li2MgB4(H17N3)2,mp-1199747,5.4504,-2.98597351,0.018965377304963837,"{3: 2, 12: 1, 5: 4, 1: 34, 7: 6}","[1, 3, 5, 7, 12]",134325476121
NaBH34(C3N)4,mp-1195859,4.1881,2.43582611,0.15641596569711957,"{11: 1, 5: 1, 1: 34, 6: 12, 7: 4}","[1, 5, 6, 7, 11]",1345161274111
CrB6P2(H17C3)2,mp-1198848,0.7523,-8.455e-05,0.13117378882653075,"{24: 1, 5: 6, 15: 2, 1: 34, 6: 6}","[1, 5, 6, 15, 24]",1345666152241
BH3,mp-634117,5.3252,-4.29169418,0.01222323375000034,"{5: 1, 1: 3}","[1, 5]",1351
NaB10H3Pb4O21,mp-1210485,0.010099999999999998,2.27496975,0.2664319551602734,"{11: 1, 5: 10, 1: 3, 82: 4, 8: 21}","[1, 5, 8, 11, 82]",13510821111824
SiBH3CNCl3,mp-1199507,4.9039,-1.56091103,0.04892138583092187,"{14: 1, 5: 1, 1: 3, 6: 1, 7: 1, 17: 3}","[1, 5, 6, 7, 14, 17]",13516171141173
BH3NF3,mp-24160,7.7194,-3.57946278,0.0,"{5: 1, 1: 3, 7: 1, 9: 3}","[1, 5, 7, 9]",13517193
BH3NF4,mp-697120,7.5583,-2.86280768,0.04854479314814952,"{5: 1, 1: 3, 7: 1, 9: 4}","[1, 5, 7, 9]",13517194
NaAlBP2H3O10,mp-24646,5.7883000000000004,1.59693791,0.005887876799775427,"{11: 1, 13: 1, 5: 1, 15: 2, 1: 3, 8: 10}","[1, 5, 8, 11, 13, 15]",1351810111131152
NaVBP2H3O10,mp-510020,2.1429,2.04252028,0.0004954466666653445,"{11: 1, 23: 1, 5: 1, 15: 2, 1: 3, 8: 10}","[1, 5, 8, 11, 15, 23]",1351810111152231
NaFeBP2H3O10,mp-505478,2.6123,1.16859321,0.002470493333333046,"{11: 1, 26: 1, 5: 1, 15: 2, 1: 3, 8: 10}","[1, 5, 8, 11, 15, 26]",1351810111152261
NaGaBP2H3O10,mp-1199672,4.9585,5.8467352,0.004326949299768401,"{11: 1, 31: 1, 5: 1, 15: 2, 1: 3, 8: 10}","[1, 5, 8, 11, 15, 31]",1351810111152311
KGaBP2H3O10,mp-695655,0.0,1.17071573,1.3045026176678256,"{19: 1, 31: 1, 5: 1, 15: 2, 1: 3, 8: 10}","[1, 5, 8, 15, 19, 31]",1351810152191311
CaNiBP2H3O10,mp-23811,4.0596,6.26149503,0.006346542731499483,"{20: 1, 28: 1, 5: 1, 15: 2, 1: 3, 8: 10}","[1, 5, 8, 15, 20, 28]",1351810152201281
K3BP3(HO4)3,mp-1202621,4.8533,-0.33383931,0.01547831817235057,"{19: 3, 5: 1, 15: 3, 1: 3, 8: 12}","[1, 5, 8, 15, 19]",1351812153193
BH3OF4,mp-696379,7.657299999999999,-3.8748985,0.0,"{5: 1, 1: 3, 8: 1, 9: 4}","[1, 5, 8, 9]",13518194
B(HO)3,mp-23791,6.0572,-2.79796467,0.0,"{5: 1, 1: 3, 8: 3}","[1, 5, 8]",135183
Mg3B(HO2)3,mp-554719,3.4202000000000004,1.69467912,0.011741920576921139,"{12: 3, 5: 1, 1: 3, 8: 6}","[1, 5, 8, 12]",135186123
BP4(HO2)3,mp-1200474,4.364,-0.60535557,0.24763703536905357,"{5: 1, 15: 4, 1: 3, 8: 6}","[1, 5, 8, 15]",135186154
B2H3,mp-27876,3.074,-2.18793893,0.03457064714772695,"{5: 2, 1: 3}","[1, 5]",1352
CaB2H3,mp-1191384,0.0,2.93769908,0.31258529611111197,"{20: 1, 5: 2, 1: 3}","[1, 5, 20]",1352201
FeB2P2(HO4)3,mp-1202257,2.3365,0.99676273,0.07443417625000581,"{26: 1, 5: 2, 15: 2, 1: 3, 8: 12}","[1, 5, 8, 15, 26]",1352812152261
K3CuB2P4H3O17,mp-773133,0.3045,1.14218887,0.0,"{19: 3, 29: 1, 5: 2, 15: 4, 1: 3, 8: 17}","[1, 5, 8, 15, 19, 29]",1352817154193291
Ba2B2AsH3F18,mp-1198263,5.0476,1.45224726,0.0,"{56: 2, 5: 2, 33: 1, 1: 3, 9: 18}","[1, 5, 9, 33, 56]",1352918331562
K(BH)3,mp-23950,5.0082,-1.15176661,0.047473820857143245,"{19: 1, 5: 3, 1: 3}","[1, 5, 19]",1353191
Cs(BH)3,mp-23951,4.324199999999999,-0.80282733,0.05287730621921227,"{55: 1, 5: 3, 1: 3}","[1, 5, 55]",1353551
Zn8B3H3O14,mp-555808,2.4989,-0.57679101,0.02418119901785687,"{30: 8, 5: 3, 1: 3, 8: 14}","[1, 5, 8, 30]",1353814308
NaAl6Fe3Si6B3H3O30F,mp-863003,0.7949000000000002,5.14944175,0.009142269766400979,"{11: 1, 13: 6, 26: 3, 14: 6, 5: 3, 1: 3, 8: 30, 9: 1}","[1, 5, 8, 9, 11, 13, 14, 26]",135383091111136146263
NaMg2Al6VSi6B3H3O31,mp-1221055,5.109,6.07133373,0.007555752525134629,"{11: 1, 12: 2, 13: 6, 23: 1, 14: 6, 5: 3, 1: 3, 8: 31}","[1, 5, 8, 11, 12, 13, 14, 23]",1353831111122136146231
NaMg3V3Cr3Si6B3H3O31,mp-1221086,1.4672,3.71815716,0.0,"{11: 1, 12: 3, 23: 3, 24: 3, 14: 6, 5: 3, 1: 3, 8: 31}","[1, 5, 8, 11, 12, 14, 23, 24]",1353831111123146233243
NaFe9Si6B3H3O31,mp-1210493,0.020000000000000018,3.33574417,0.014102663873816645,"{11: 1, 26: 9, 14: 6, 5: 3, 1: 3, 8: 31}","[1, 5, 8, 11, 14, 26]",1353831111146269
Y3Al6Si6B3H3O31,mp-1207887,0.0,7.59544374,0.12283998975159349,"{39: 3, 13: 6, 14: 6, 5: 3, 1: 3, 8: 31}","[1, 5, 8, 13, 14, 39]",1353831136146393
CaB3H3O7,mp-722262,5.7435,0.7302591,0.0,"{20: 1, 5: 3, 1: 3, 8: 7}","[1, 5, 8, 20]",135387201
ZnB3H3O7,mp-1196460,4.677700000000001,-0.04293205,0.008201045267852258,"{30: 1, 5: 3, 1: 3, 8: 7}","[1, 5, 8, 30]",135387301
CrB3(HO3)3,mp-778931,1.778,-2.19864546,0.051601858187500405,"{24: 1, 5: 3, 1: 3, 8: 9}","[1, 5, 8, 24]",135389241
B3H3SeO9,mp-778385,3.2394,-1.67590957,0.024192746067707382,"{5: 3, 1: 3, 34: 1, 8: 9}","[1, 5, 8, 34]",135389341
BaAlB4H3O10,mp-1195235,5.3921,0.07545494,0.0,"{56: 1, 13: 1, 5: 4, 1: 3, 8: 10}","[1, 5, 8, 13, 56]",1354810131561
BaGaB4H3O10,mp-1194652,4.976,-0.25867752,0.0,"{56: 1, 31: 1, 5: 4, 1: 3, 8: 10}","[1, 5, 8, 31, 56]",1354810311561
Zn8B4H3O15F,mp-1215828,3.0449,-0.89369947,0.004783236129029866,"{30: 8, 5: 4, 1: 3, 8: 15, 9: 1}","[1, 5, 8, 9, 30]",135481591308
BiB4(HO3)3,mp-1202291,4.2330000000000005,0.22498424,0.007563921176469535,"{83: 1, 5: 4, 1: 3, 8: 9}","[1, 5, 8, 83]",135489831
Na2B5H3O10,mp-720312,4.9795,0.20344952,0.0048626867533005935,"{11: 2, 5: 5, 1: 3, 8: 10}","[1, 5, 8, 11]",1355810112
CaB5H3O10,mp-757666,5.1418,0.14416091,0.012626356210512668,"{20: 1, 5: 5, 1: 3, 8: 10}","[1, 5, 8, 20]",1355810201
Ca2B5H3O11,mp-1194894,5.5382,0.84176055,0.024053423928571682,"{20: 2, 5: 5, 1: 3, 8: 11}","[1, 5, 8, 20]",1355811202
Sr2B5H3O11,mp-1201098,5.1638,0.62964048,0.0004428440476162976,"{38: 2, 5: 5, 1: 3, 8: 11}","[1, 5, 8, 38]",1355811382
CaB6(HO4)3,mp-1214321,0.0,-1.96454387,0.7839072093522939,"{20: 1, 5: 6, 1: 3, 8: 12}","[1, 5, 8, 20]",1356812201
YB6(HO4)3,mp-1178731,6.151999999999999,-0.04204012,0.0,"{39: 1, 5: 6, 1: 3, 8: 12}","[1, 5, 8, 39]",1356812391
Ba3Ge2B7H3O20,mp-1202293,0.0,0.70953942,0.04307363981594037,"{56: 3, 32: 2, 5: 7, 1: 3, 8: 20}","[1, 5, 8, 32, 56]",1357820322563
Na6Mg3B9P6H3O38,mp-1198429,0.0,0.74262775,0.05861736874359735,"{11: 6, 12: 3, 5: 9, 15: 6, 1: 3, 8: 38}","[1, 5, 8, 11, 12, 15]",1359838116123156
Na6Co3B9P6H3O38,mp-1204177,0.2221000000000002,1.06295415,0.09043578641025718,"{11: 6, 27: 3, 5: 9, 15: 6, 1: 3, 8: 38}","[1, 5, 8, 11, 15, 27]",1359838116156273
Na6Ni3B9P6H3O38,mp-1205268,0.7654,0.88665088,0.07567794999911115,"{11: 6, 28: 3, 5: 9, 15: 6, 1: 3, 8: 38}","[1, 5, 8, 11, 15, 28]",1359838116156283
Na6Zn3B9P6H3O38,mp-1204092,0.0,0.4201261,0.07279407355843581,"{11: 6, 30: 3, 5: 9, 15: 6, 1: 3, 8: 38}","[1, 5, 8, 11, 15, 30]",1359838116156303
MgB12(H3O)12,mp-1203384,2.0732,-0.75515777,0.2389762301479923,"{12: 1, 5: 12, 1: 36, 8: 12}","[1, 5, 8, 12]",136512812121
NiB12(H3O)12,mp-728484,0.10850000000000004,-1.82380791,0.6630302134904378,"{28: 1, 5: 12, 1: 36, 8: 12}","[1, 5, 8, 28]",136512812281
BP4H36Rh(C9F5)4,mp-1202148,2.5166,0.32992037,0.3225253204557825,"{5: 1, 15: 4, 1: 36, 45: 1, 6: 36, 9: 20}","[1, 5, 6, 9, 15, 45]",13651636920154451
UB6H36(C2N)3,mp-1196538,0.6279000000000001,1.66109975,0.1858412096364157,"{92: 1, 5: 6, 1: 36, 6: 6, 7: 3}","[1, 5, 6, 7, 92]",136566673921
CrB6H36(C4O)2,mp-1197470,2.5602,-1.73703009,0.2156571664084872,"{24: 1, 5: 6, 1: 36, 6: 8, 8: 2}","[1, 5, 6, 8, 24]",136566882241
Si2B2H37C12N5,mp-1201331,3.2504999999999997,2.06822014,0.1252153354597736,"{14: 2, 5: 2, 1: 37, 6: 12, 7: 5}","[1, 5, 6, 7, 14]",1375261275142
Li2AlB5(H19N3)2,mp-1199564,6.049300000000001,-2.62493422,0.0367231494230813,"{3: 2, 13: 1, 5: 5, 1: 38, 7: 6}","[1, 3, 5, 7, 13]",138325576131
B8P2H39RhC13,mp-1199795,2.2831,-0.82987998,0.09566796502579233,"{5: 8, 15: 2, 1: 39, 45: 1, 6: 13}","[1, 5, 6, 15, 45]",13958613152451
AgB10P2H40C15NCl2O3,mp-1204520,2.0022,-0.73700406,0.29900533667567686,"{47: 1, 5: 10, 15: 2, 1: 40, 6: 15, 7: 1, 17: 2, 8: 3}","[1, 5, 6, 7, 8, 15, 17, 47]",1405106157183152172471
Zr6BH42C12I13O12,mp-1178630,1.1426,0.3408135,0.3269461431007663,"{40: 6, 5: 1, 1: 42, 6: 12, 53: 13, 8: 12}","[1, 5, 6, 8, 40, 53]",142516128124065313
FeB18H42C8(SN)2,mp-1226982,0.5531999999999999,-0.34885974,0.2009303446843731,"{26: 1, 5: 18, 1: 42, 6: 8, 16: 2, 7: 2}","[1, 5, 6, 7, 16, 26]",1425186872162261
B20H42N4O3,mp-1202539,4.4239,3.11874849,0.18456190455163224,"{5: 20, 1: 42, 7: 4, 8: 3}","[1, 5, 7, 8]",1425207483
MgB2H42C26(N7O3)2,mp-1199767,4.6876999999999995,2.16063233,0.28299953925275556,"{12: 1, 5: 2, 1: 42, 6: 26, 7: 14, 8: 6}","[1, 5, 6, 7, 8, 12]",1425262671486121
LiBH4,mp-1192133,6.3705,2.42726724,0.0,"{3: 1, 5: 1, 1: 4}","[1, 3, 5]",143151
LiBH4C2(O3F)2,mp-1196081,3.4009,-1.85544665,0.06429356094618033,"{3: 1, 5: 1, 1: 4, 6: 2, 8: 6, 9: 2}","[1, 3, 5, 6, 8, 9]",143151628692
LiB(HO)4,mp-23662,5.5694,-0.77171528,0.008493894875003072,"{3: 1, 5: 1, 1: 4, 8: 4}","[1, 3, 5, 8]",14315184
Li(BH)4,mp-1211283,1.7113,-0.01388636,0.17671495462301312,"{3: 1, 5: 4, 1: 4}","[1, 3, 5]",143154
Li2B4H4O9,mp-604459,5.1171999999999995,-0.51548704,0.011560251535081889,"{3: 2, 5: 4, 1: 4, 8: 9}","[1, 3, 5, 8]",14325489
Li4CaB10(HO5)4,mp-1202263,4.884799999999999,0.81960322,0.005413377555541388,"{3: 4, 20: 1, 5: 10, 1: 4, 8: 20}","[1, 3, 5, 8, 20]",1434510820201
CsNaB10(H2O9)2,mp-1226923,5.7673000000000005,5.0135821,0.0007185972794001572,"{55: 1, 11: 1, 5: 10, 1: 4, 8: 18}","[1, 5, 8, 11, 55]",14510818111551
K4B10H4O19,mp-1197401,5.1432,-0.39851045,0.0,"{19: 4, 5: 10, 1: 4, 8: 19}","[1, 5, 8, 19]",14510819194
Ba3Al2B10H4O23,mp-1201953,4.970899999999999,-0.00076365,0.0,"{56: 3, 13: 2, 5: 10, 1: 4, 8: 23}","[1, 5, 8, 13, 56]",14510823132563
Ba3Ga2B10H4O23,mp-1229265,4.7953,-0.28791826,0.0,"{56: 3, 31: 2, 5: 10, 1: 4, 8: 23}","[1, 5, 8, 31, 56]",14510823312563
NaBH4,mp-38725,6.3086,-2.36026639,0.0,"{11: 1, 5: 1, 1: 4}","[1, 5, 11]",1451111
KZnB(H2Cl)2,mp-1105530,4.885,-2.36205056,0.015613747268519163,"{19: 1, 30: 1, 5: 1, 1: 4, 17: 2}","[1, 5, 17, 19, 30]",1451172191301
KBH4,mp-37722,6.0959,-3.31419747,0.0,"{19: 1, 5: 1, 1: 4}","[1, 5, 19]",1451191
FeB12(HO6)4,mp-1194745,0.016599999999999948,-1.113406,0.11461010673780336,"{26: 1, 5: 12, 1: 4, 8: 24}","[1, 5, 8, 26]",14512824261
Cs2B12H4F9,mp-1213928,3.3402000000000003,-0.7460994,0.15505137337791464,"{55: 2, 5: 12, 1: 4, 9: 9}","[1, 5, 9, 55]",1451299552
RbBH4,mp-1219553,6.0935,-3.50256994,0.0,"{37: 1, 5: 1, 1: 4}","[1, 5, 37]",1451371
CsBH4,mp-1225884,5.7194,-3.02448507,0.0,"{55: 1, 5: 1, 1: 4}","[1, 5, 55]",1451551
KBH4(CN4)2,mp-567593,4.7684999999999995,-2.19962703,0.2551826837500002,"{19: 1, 5: 1, 1: 4, 6: 2, 7: 8}","[1, 5, 6, 7, 19]",14516278191
BH4C4N5,mp-1193817,6.3532,-4.08584036,0.32907690035713966,"{5: 1, 1: 4, 6: 4, 7: 5}","[1, 5, 6, 7]",14516475
KBH4C4(N2O)4,mp-1199292,2.731,0.50100132,0.48249957528908016,"{19: 1, 5: 1, 1: 4, 6: 4, 7: 8, 8: 4}","[1, 5, 6, 7, 8, 19]",1451647884191
TbBH4,mp-2647009,0.0,5.24926768,0.21981845881064466,"{65: 1, 5: 1, 1: 4}","[1, 5, 65]",1451651
DyBH4,mp-2647060,0.0,5.26502593,0.23319548703834236,"{66: 1, 5: 1, 1: 4}","[1, 5, 66]",1451661
HoBH4,mp-2647019,0.0,5.21646542,0.25082482062989087,"{67: 1, 5: 1, 1: 4}","[1, 5, 67]",1451671
ErBH4,mp-2646946,0.0,5.29067724,0.2634710091314574,"{68: 1, 5: 1, 1: 4}","[1, 5, 68]",1451681
TmBH4,mp-2646998,0.0,5.26442159,0.28093717078247415,"{69: 1, 5: 1, 1: 4}","[1, 5, 69]",1451691
BH4N,mp-27341,5.9404,-2.40936286,0.042937087083335435,"{5: 1, 1: 4, 7: 1}","[1, 5, 7]",145171
LuBH4,mp-2647094,0.0,5.33337646,0.3400165083040072,"{71: 1, 5: 1, 1: 4}","[1, 5, 71]",1451711
Na2BH4N,mp-1221388,0.0,-0.50143327,0.5863840722916676,"{11: 2, 5: 1, 1: 4, 7: 1}","[1, 5, 7, 11]",145171112
BPH4NO4F,mp-1195775,5.8383,-0.53331022,0.0,"{5: 1, 15: 1, 1: 4, 7: 1, 8: 4, 9: 1}","[1, 5, 7, 8, 9, 15]",1451718491151
BAsH4NO4F,mp-1191775,4.3662,-0.8169602,0.046418157928239445,"{5: 1, 33: 1, 1: 4, 7: 1, 8: 4, 9: 1}","[1, 5, 7, 8, 9, 33]",1451718491331
ZnBP2H4NO8,mp-24657,4.8437,0.092167,0.0,"{30: 1, 5: 1, 15: 2, 1: 4, 7: 1, 8: 8}","[1, 5, 7, 8, 15, 30]",14517188152301
Ge3BH4NO8,mp-1204732,3.2039,-0.12805501,0.017278330962579247,"{32: 3, 5: 1, 1: 4, 7: 1, 8: 8}","[1, 5, 7, 8, 32]",14517188323
BH4NF4,mp-720391,7.481199999999999,-3.53165251,0.0,"{5: 1, 1: 4, 7: 1, 9: 4}","[1, 5, 7, 9]",14517194
NaCoBP2H4O11,mp-1211027,0.12109999999999999,0.84117554,0.15150792320833695,"{11: 1, 27: 1, 5: 1, 15: 2, 1: 4, 8: 11}","[1, 5, 8, 11, 15, 27]",1451811111152271
Na4Al3Si3B(HO3)4,mp-694981,4.9472,-0.202779,0.0,"{11: 4, 13: 3, 14: 3, 5: 1, 1: 4, 8: 12}","[1, 5, 8, 11, 13, 14]",1451812114133143
Na4Al3Ge3B(HO3)4,mp-535042,4.2134,-0.96581547,0.049812988981483564,"{11: 4, 13: 3, 32: 3, 5: 1, 1: 4, 8: 12}","[1, 5, 8, 11, 13, 32]",1451812114133323
Na4Ga3Si3B(HO3)4,mp-534870,4.2524,-0.67632136,0.0,"{11: 4, 31: 3, 14: 3, 5: 1, 1: 4, 8: 12}","[1, 5, 8, 11, 14, 31]",1451812114143313
Na4Ga3Ge3B(HO3)4,mp-1203580,3.5637999999999996,2.07604304,0.059550497847220996,"{11: 4, 31: 3, 32: 3, 5: 1, 1: 4, 8: 12}","[1, 5, 8, 11, 31, 32]",1451812114313323
K6Al4Si6BH4ClO24,mp-1199737,4.5193,0.41368791,0.004205976809787515,"{19: 6, 13: 4, 14: 6, 5: 1, 1: 4, 17: 1, 8: 24}","[1, 5, 8, 13, 14, 17, 19]",1451824134146171196
BH4O2F3,mp-696656,6.8268,-3.2091329,0.0,"{5: 1, 1: 4, 8: 2, 9: 3}","[1, 5, 8, 9]",14518293
NaB(HO)4,mp-707419,4.873,-1.1172146,0.0061265320833356895,"{11: 1, 5: 1, 1: 4, 8: 4}","[1, 5, 8, 11]",145184111