formula,material_id,band_gap,efermi,energy_above_hull,comp_atoms,sorted_keys_comp_atoms,comp_number
Cu3B7IO13,mp-651682,0.0,4.13434936,0.020559678365382084,"{29: 3, 5: 7, 53: 1, 8: 13}","[5, 8, 29, 53]",57813293531
Zn3B7BrO13,mp-1179542,4.4924,6.2002468,0.0059078026432235475,"{30: 3, 5: 7, 35: 1, 8: 13}","[5, 8, 30, 35]",57813303351
Zn3B7IO13,mp-1207531,4.292999999999999,6.73730846,0.02018565324220134,"{30: 3, 5: 7, 53: 1, 8: 13}","[5, 8, 30, 53]",57813303531
Cr3B7O13F,mp-1213769,3.1891000000000003,2.98524537,0.0,"{24: 3, 5: 7, 8: 13, 9: 1}","[5, 8, 9, 24]",5781391243
Co3B7O13F,mp-1197938,2.2897000000000003,4.25677408,0.10302076207175936,"{27: 3, 5: 7, 8: 13, 9: 1}","[5, 8, 9, 27]",5781391273
Cd3(BO2)7,mp-1198909,0.04459999999999997,1.0490961,0.024781847734375972,"{48: 3, 5: 7, 8: 14}","[5, 8, 48]",57814483
PuB7IO14,mp-1196747,0.0,-0.23750968,0.1569123317210135,"{94: 1, 5: 7, 53: 1, 8: 14}","[5, 8, 53, 94]",57814531941
LaB7IO15,mp-1205243,0.3751,0.03772509,0.566180140873854,"{57: 1, 5: 7, 53: 1, 8: 15}","[5, 8, 53, 57]",57815531571
CeB7IO15,mp-1200378,0.2577,-0.36142535,0.2689994616493063,"{58: 1, 5: 7, 53: 1, 8: 15}","[5, 8, 53, 58]",57815531581
PrB7IO15,mp-1204720,0.0,-0.20140988,0.5722351960590215,"{59: 1, 5: 7, 53: 1, 8: 15}","[5, 8, 53, 59]",57815531591
NdB7IO15,mp-1199548,0.0,-0.05928708,0.5620433377430674,"{60: 1, 5: 7, 53: 1, 8: 15}","[5, 8, 53, 60]",57815531601
SmB7IO15,mp-1203095,0.5477000000000001,0.02156465,0.27952578289929964,"{62: 1, 5: 7, 53: 1, 8: 15}","[5, 8, 53, 62]",57815531621
NdB7ClO18,mp-1202140,0.09999999999999998,-0.63840475,0.14638762179011522,"{60: 1, 5: 7, 17: 1, 8: 18}","[5, 8, 17, 60]",57818171601
SmB7ClO18,mp-1203811,0.08079999999999998,-0.70474118,0.1480782263734417,"{62: 1, 5: 7, 17: 1, 8: 18}","[5, 8, 17, 62]",57818171621
Ba3NaSi2B7O20,mp-1205119,0.41290000000000004,1.7658892,0.11600081045456001,"{56: 3, 11: 1, 14: 2, 5: 7, 8: 20}","[5, 8, 11, 14, 56]",57820111142563
K3B7PtO20,mp-1181745,0.0,-1.1670559,0.5469763799372735,"{19: 3, 5: 7, 78: 1, 8: 20}","[5, 8, 19, 78]",57820193781
Al(Ni3B2)4,mp-866315,0.0,8.90995502,0.0,"{13: 1, 28: 12, 5: 8}","[5, 13, 28]",581312812
AlNi9B8,mp-1194505,0.0,9.05640105,0.012936473560605677,"{13: 1, 28: 9, 5: 8}","[5, 13, 28]",58131289
AlZn10(B4Rh9)2,mp-1214951,0.0,5.90822192,0.005087341126141176,"{13: 1, 30: 10, 5: 8, 45: 18}","[5, 13, 30, 45]",5813130104518
Ta3AlB8,mp-1217997,0.0,9.112044,0.0057861593666643785,"{73: 3, 13: 1, 5: 8}","[5, 13, 73]",58131733
Zn10Si(B4Rh9)2,mp-1207540,0.0,6.05764735,7.505957208220337e-05,"{30: 10, 14: 1, 5: 8, 45: 18}","[5, 14, 30, 45]",5814130104518
Y5(SiB4)2,mp-1207750,0.0,5.5172863,0.0,"{39: 5, 14: 2, 5: 8}","[5, 14, 39]",58142395
Sm5(SiB4)2,mp-1208836,0.0,5.17924129,0.01573210716666118,"{62: 5, 14: 2, 5: 8}","[5, 14, 62]",58142625
Tb5(SiB4)2,mp-1208405,0.0,5.41067905,0.0,"{65: 5, 14: 2, 5: 8}","[5, 14, 65]",58142655
Dy5(SiB4)2,mp-1212823,0.0,5.40296458,0.0,"{66: 5, 14: 2, 5: 8}","[5, 14, 66]",58142665
Ho5(SiB4)2,mp-1212227,0.0,5.35319377,0.0,"{67: 5, 14: 2, 5: 8}","[5, 14, 67]",58142675
B8P,mp-1228676,0.18459999999999965,5.48078979,0.15062764537037054,"{5: 8, 15: 1}","[5, 15]",58151
ScZn10(B4Rh9)2,mp-1209559,0.0,5.71373226,0.0363188051468466,"{21: 1, 30: 10, 5: 8, 45: 18}","[5, 21, 30, 45]",5821130104518
HoSc(BRh)8,mp-1223895,0.0,6.85799357,0.03726988188888569,"{67: 1, 21: 1, 5: 8, 45: 8}","[5, 21, 45, 67]",58211458671
ThSc(BRh)8,mp-1217330,0.0,7.41356461,0.05519319052777494,"{90: 1, 21: 1, 5: 8, 45: 8}","[5, 21, 45, 90]",58211458901
Sc8B8As3Rh20,mp-1219413,0.0,6.88811667,0.0,"{21: 8, 5: 8, 33: 3, 45: 20}","[5, 21, 33, 45]",582183334520
TiZn10(B4Rh9)2,mp-1208284,0.0,5.86057618,0.025133943236568257,"{22: 1, 30: 10, 5: 8, 45: 18}","[5, 22, 30, 45]",5822130104518
Ti7B8(IrRh2)2,mp-1217063,0.0,7.89428028,0.06228198291760556,"{22: 7, 5: 8, 77: 2, 45: 4}","[5, 22, 45, 77]",58227454772
Ti8Cr3(B4Ru9)2,mp-1217552,0.0,7.57539997,0.0014082129054067138,"{22: 8, 24: 3, 5: 8, 44: 18}","[5, 22, 24, 44]",582282434418
Ti8Mn3(B4Ru9)2,mp-1217647,0.0,7.55478816,0.0003925843120367034,"{22: 8, 25: 3, 5: 8, 44: 18}","[5, 22, 25, 44]",582282534418
Ti8Ni3(B4Ru9)2,mp-1217553,0.0,7.6790076,0.04485079190540553,"{22: 8, 28: 3, 5: 8, 44: 18}","[5, 22, 28, 44]",582282834418
Ti9Mn2(B4Ru9)2,mp-1197511,0.0,7.56727181,0.0,"{22: 9, 25: 2, 5: 8, 44: 18}","[5, 22, 25, 44]",582292524418
Ti9Fe2(B4Ru9)2,mp-684003,0.0,7.44857278,0.005008331756755524,"{22: 9, 26: 2, 5: 8, 44: 18}","[5, 22, 26, 44]",582292624418
Ti9Co2(B4Ru9)2,mp-1200174,0.0,7.51164229,0.021227223603604628,"{22: 9, 27: 2, 5: 8, 44: 18}","[5, 22, 27, 44]",582292724418
Ti9Ni2(B4Ru9)2,mp-1199093,0.0,7.57848192,0.02956294370270207,"{22: 9, 28: 2, 5: 8, 44: 18}","[5, 22, 28, 44]",582292824418
Ti9Cu2(B4Ru9)2,mp-1201135,0.0,7.46887479,0.029370623648645733,"{22: 9, 29: 2, 5: 8, 44: 18}","[5, 22, 29, 44]",582292924418
V11FeB8,mp-1216907,0.0,6.99660735,0.01259422250000064,"{23: 11, 26: 1, 5: 8}","[5, 23, 26]",582311261
V11ReB8,mp-1216792,0.0,7.18218593,0.009393375000000148,"{23: 11, 75: 1, 5: 8}","[5, 23, 75]",582311751
VZn10(B4Rh9)2,mp-1207904,0.0,5.81291168,0.02607994073183484,"{23: 1, 30: 10, 5: 8, 45: 18}","[5, 23, 30, 45]",5823130104518
V3Cr3B8,mp-1216493,0.0,8.40189103,0.006059984642854843,"{23: 3, 24: 3, 5: 8}","[5, 23, 24]",58233243
Nb3V5(B2Ir)4,mp-1220611,0.0,7.9383973,0.07303638811111668,"{41: 3, 23: 5, 5: 8, 77: 4}","[5, 23, 41, 77]",58235413774
V9Cr3B8,mp-1216445,0.0,7.25365362,0.01781422050000714,"{23: 9, 24: 3, 5: 8}","[5, 23, 24]",58239243
Zn10Cr(B4Rh9)2,mp-1207569,0.0,5.70798608,0.025561786087584082,"{30: 10, 24: 1, 5: 8, 45: 18}","[5, 24, 30, 45]",5824130104518
Mn3Cr3B8,mp-1221771,0.0,8.27979715,0.060222546071429406,"{25: 3, 24: 3, 5: 8}","[5, 24, 25]",58243253
MnZn10(B4Rh9)2,mp-1211205,0.0,5.69179126,0.007623332485666268,"{25: 1, 30: 10, 5: 8, 45: 18}","[5, 25, 30, 45]",5825130104518
Mn3B8Mo3,mp-1221919,0.0,8.88689249,0.027957510892857584,"{25: 3, 5: 8, 42: 3}","[5, 25, 42]",58253423
Zn10Fe(B4Rh9)2,mp-652101,0.0,5.7751582,0.010417907743162758,"{30: 10, 26: 1, 5: 8, 45: 18}","[5, 26, 30, 45]",5826130104518
Zn10Co(B4Rh9)2,mp-1207661,0.0,5.71082758,0.017190576056512086,"{30: 10, 27: 1, 5: 8, 45: 18}","[5, 27, 30, 45]",5827130104518
Ga(Ni3B2)4,mp-1213377,0.0,8.54865862,0.005147155171258966,"{31: 1, 28: 12, 5: 8}","[5, 28, 31]",582812311
Zn10Ni(B4Rh9)2,mp-1203945,0.0,5.74091266,0.015445494502454693,"{30: 10, 28: 1, 5: 8, 45: 18}","[5, 28, 30, 45]",5828130104518
GaNi9B8,mp-1194536,0.0,8.61819936,0.011486997881944738,"{31: 1, 28: 9, 5: 8}","[5, 28, 31]",58289311
Zn10Cu(B4Rh9)2,mp-1207585,0.0,5.72731956,0.002440842002457977,"{30: 10, 29: 1, 5: 8, 45: 18}","[5, 29, 30, 45]",5829130104518
Zn10Ge(B4Rh9)2,mp-1207543,0.0,5.89189116,0.0,"{30: 10, 32: 1, 5: 8, 45: 18}","[5, 30, 32, 45]",5830103214518
Zn10Sn(B4Rh9)2,mp-1207643,0.0,6.04446564,0.013386559054056946,"{30: 10, 50: 1, 5: 8, 45: 18}","[5, 30, 45, 50]",5830104518501
Zn11(B4Rh9)2,mp-1207530,0.0,5.65654813,0.0,"{30: 11, 5: 8, 45: 18}","[5, 30, 45]",5830114518
Sr2B8Ru7,mp-649084,0.0,6.29287364,0.0,"{38: 2, 5: 8, 44: 7}","[5, 38, 44]",58382447
YLu(BRh)8,mp-1215994,0.0,6.80688522,0.019699037722224588,"{39: 1, 71: 1, 5: 8, 45: 8}","[5, 39, 45, 71]",58391458711
YTh(BRh)8,mp-1216004,0.0,7.4023421,0.02430711492283777,"{39: 1, 90: 1, 5: 8, 45: 8}","[5, 39, 45, 90]",58391458901
YLu(BIr)8,mp-1215947,0.0,8.34884714,0.026723232777781547,"{39: 1, 71: 1, 5: 8, 77: 8}","[5, 39, 71, 77]",58391711778
YUB8,mp-1215753,0.0,8.26744703,0.021727944250017117,"{39: 1, 92: 1, 5: 8}","[5, 39, 92]",58391921
Nb7(B4Ru3)2,mp-1191941,0.0,7.44997882,0.0,"{41: 7, 5: 8, 44: 6}","[5, 41, 44]",58417446
B8Ru11,mp-505535,0.0,8.86890146,0.09158099543859777,"{5: 8, 44: 11}","[5, 44]",584411
Ta7(B4Ru3)2,mp-1191981,0.0,8.01285971,0.0,"{73: 7, 5: 8, 44: 6}","[5, 44, 73]",58446737
LuTh(BRh)8,mp-1222318,0.0,7.39350143,0.03349157922221835,"{71: 1, 90: 1, 5: 8, 45: 8}","[5, 45, 71, 90]",58458711901
B84O11,mp-758800,2.5780000000000003,4.8982451,0.01966110052631631,"{5: 84, 8: 11}","[5, 8]",584811
CeThB8,mp-1226547,0.0,8.3882753,0.0,"{58: 1, 90: 1, 5: 8}","[5, 58, 90]",58581901
CeUB8,mp-1226540,0.0,9.29135194,0.010637646250014399,"{58: 1, 92: 1, 5: 8}","[5, 58, 92]",58581921
TbY3Ni8(B2C)4,mp-1217451,0.0,6.82404745,0.005113272500000043,"{65: 1, 39: 3, 28: 8, 5: 8, 6: 4}","[5, 6, 28, 39, 65]",5864288393651
LuUB8,mp-1222258,0.0,8.24212315,0.0195429034999961,"{71: 1, 92: 1, 5: 8}","[5, 71, 92]",58711921
Ce15B8N25,mp-28370,0.0,8.36038587,0.0,"{58: 15, 5: 8, 7: 25}","[5, 7, 58]",587255815
B8O,mp-1228685,2.2645,5.07141953,0.020174279074073986,"{5: 8, 8: 1}","[5, 8]",5881
Na2B8O13,mp-542300,5.4478,-0.14020065,0.0,"{11: 2, 5: 8, 8: 13}","[5, 8, 11]",58813112
SrB8O13,mp-684018,5.5745000000000005,5.87730536,0.0,"{38: 1, 5: 8, 8: 13}","[5, 8, 38]",58813381
Ag2B8O13,mp-554873,3.2651,0.52025417,0.0,"{47: 2, 5: 8, 8: 13}","[5, 8, 47]",58813472
BaB8O13,mp-27794,5.5451,0.11387725,0.0,"{56: 1, 5: 8, 8: 13}","[5, 8, 56]",58813561
MgMn2(B4O7)2,mp-1234300,0.40700000000000003,5.51266975,0.24356500791190427,"{12: 1, 25: 2, 5: 8, 8: 14}","[5, 8, 12, 25]",58814121252
K3AlB8O15,mp-561447,4.9962,-1.00736155,0.0,"{19: 3, 13: 1, 5: 8, 8: 15}","[5, 8, 13, 19]",58815131193
CaB8O15,mp-1200314,0.0,-0.87965819,0.16641863215280317,"{20: 1, 5: 8, 8: 15}","[5, 8, 20]",58815201
Ca2B8O15,mp-1214238,0.19229999999999992,0.54727609,0.06524792135000723,"{20: 2, 5: 8, 8: 15}","[5, 8, 20]",58815202
SrB8O15,mp-1196359,0.0,-1.06276145,0.16214148869789824,"{38: 1, 5: 8, 8: 15}","[5, 8, 38]",58815381
La2B8O15,mp-1019892,4.385699999999999,4.77092092,0.022939711999994117,"{57: 2, 5: 8, 8: 15}","[5, 8, 57]",58815572
Ce2B8O15,mp-1019592,0.1048,7.62254609,0.02681244466666577,"{58: 2, 5: 8, 8: 15}","[5, 8, 58]",58815582
Nd2B8O15,mp-1194942,5.2515,3.445829,0.02564946381666644,"{60: 2, 5: 8, 8: 15}","[5, 8, 60]",58815602
B8PbO15,mp-1201012,0.0,-0.11523549,0.15393849652777813,"{5: 8, 82: 1, 8: 15}","[5, 8, 82]",58815821
Bi2B8O15,mp-542931,4.347700000000001,0.83223215,0.0026988406666692555,"{83: 2, 5: 8, 8: 15}","[5, 8, 83]",58815832
Tb2Cu(BO2)8,mp-559927,1.0489000000000002,2.572998,0.018028212530865062,"{65: 2, 29: 1, 5: 8, 8: 16}","[5, 8, 29, 65]",58816291652
Dy2Cu(BO2)8,mp-557935,0.8659000000000003,2.76452901,0.017687343086421947,"{66: 2, 29: 1, 5: 8, 8: 16}","[5, 8, 29, 66]",58816291662
Ho2Cu(BO2)8,mp-554184,0.8664999999999998,2.65663733,0.016916169845679008,"{67: 2, 29: 1, 5: 8, 8: 16}","[5, 8, 29, 67]",58816291672
Tl4B8O17,mp-1179277,0.46709999999999996,0.89569746,0.0875876453017348,"{81: 4, 5: 8, 8: 17}","[5, 8, 81]",58817814
UB8O17,mp-1200475,0.3199,-0.371528,0.144937324487179,"{92: 1, 5: 8, 8: 17}","[5, 8, 92]",58817921
NpB8O17,mp-1197731,0.1041,-0.12922949,0.11766272943911105,"{93: 1, 5: 8, 8: 17}","[5, 8, 93]",58817931
Ba4NaAl2B8(ClO6)3,mp-1204585,4.7156,1.31914869,0.0,"{56: 4, 11: 1, 13: 2, 5: 8, 17: 3, 8: 18}","[5, 8, 11, 13, 17, 56]",58818111132173564
Ba4NaAl2B8(BrO6)3,mp-1197875,3.9082999999999997,1.95243876,0.0,"{56: 4, 11: 1, 13: 2, 5: 8, 35: 3, 8: 18}","[5, 8, 11, 13, 35, 56]",58818111132353564
Ba4NaGa2B8(ClO6)3,mp-1195176,4.4547,1.05801913,0.0,"{56: 4, 11: 1, 31: 2, 5: 8, 17: 3, 8: 18}","[5, 8, 11, 17, 31, 56]",58818111173312564
Ba4NaGa2B8(BrO6)3,mp-1195423,3.4734,1.7601824,0.0,"{56: 4, 11: 1, 31: 2, 5: 8, 35: 3, 8: 18}","[5, 8, 11, 31, 35, 56]",58818111312353564
Th4Mg(B2O5)4,mp-1233955,1.2617000000000003,5.36011303,0.15220871538825698,"{90: 4, 12: 1, 5: 8, 8: 20}","[5, 8, 12, 90]",58820121904
CeB8ClO20,mp-1202093,0.0,-0.70192452,0.1601413080138867,"{58: 1, 5: 8, 17: 1, 8: 20}","[5, 8, 17, 58]",58820171581
Y2Al3Ga3(BO3)8,mp-1216259,5.0992999999999995,2.80962477,0.005108335729167024,"{39: 2, 13: 3, 31: 3, 5: 8, 8: 24}","[5, 8, 13, 31, 39]",58824133313392
EuYAl6(BO3)8,mp-1225326,0.0,3.52528244,0.003293422769250043,"{63: 1, 39: 1, 13: 6, 5: 8, 8: 24}","[5, 8, 13, 39, 63]",58824136391631
YErAl6(BO3)8,mp-1216022,5.398100000000001,3.42963138,0.002085490322118133,"{39: 1, 68: 1, 13: 6, 5: 8, 8: 24}","[5, 8, 13, 39, 68]",58824136391681
YFe6Bi(BO3)8,mp-1216150,2.2470000000000003,2.56819877,0.012142144708334968,"{39: 1, 26: 6, 83: 1, 5: 8, 8: 24}","[5, 8, 26, 39, 83]",58824266391831
NdFe6Bi(BO3)8,mp-1220241,2.3360000000000003,5.14575126,0.024096098046875625,"{60: 1, 26: 6, 83: 1, 5: 8, 8: 24}","[5, 8, 26, 60, 83]",58824266601831
BaSr3Cu8(BO3)8,mp-1228284,0.0,2.26995347,0.044078662443172156,"{56: 1, 38: 3, 29: 8, 5: 8, 8: 24}","[5, 8, 29, 38, 56]",58824298383561
Na3La9B8O27,mp-6760,4.0102,4.46191785,0.0,"{11: 3, 57: 9, 5: 8, 8: 27}","[5, 8, 11, 57]",58827113579
Na3Nd9B8O27,mp-1210255,3.9569,2.26225438,0.0,"{11: 3, 60: 9, 5: 8, 8: 27}","[5, 8, 11, 60]",58827113609
Na3Sm9B8O27,mp-1210282,4.048399999999999,2.26806002,0.003137375226058836,"{11: 3, 62: 9, 5: 8, 8: 27}","[5, 8, 11, 62]",58827113629
Na3Eu9B8O27,mp-1210643,0.0,1.92455134,0.10856775188834789,"{11: 3, 63: 9, 5: 8, 8: 27}","[5, 8, 11, 63]",58827113639
Nd13Mg2Si4B8O43,mp-1196647,0.0,2.16490578,0.12514200149999333,"{60: 13, 12: 2, 14: 4, 5: 8, 8: 43}","[5, 8, 12, 14, 60]",588431221446013
La26B8O51,mp-759763,3.4409,4.95163981,0.0,"{57: 26, 5: 8, 8: 51}","[5, 8, 57]",588515726
Cd12Ge17(B4O29)2,mp-1204954,0.00010000000000021103,3.60354385,0.0007592856052642816,"{48: 12, 32: 17, 5: 8, 8: 58}","[5, 8, 32, 48]",5885832174812
ThUB8,mp-1217340,0.0,9.34852549,0.014681677250010239,"{90: 1, 92: 1, 5: 8}","[5, 90, 92]",58901921
NaB9Se8,mp-640950,1.9422000000000001,1.2482763,0.0,"{11: 1, 5: 9, 34: 8}","[5, 11, 34]",59111348
Na4(BSe)9,mp-31229,2.2101,1.14063569,0.0,"{11: 4, 5: 9, 34: 9}","[5, 11, 34]",59114349
Rb4(BS)9,mp-31060,3.1228000000000002,0.89747148,0.0,"{37: 4, 5: 9, 16: 9}","[5, 16, 37]",59169374
Cs4(BS)9,mp-1200467,3.2401,0.84745455,0.0,"{55: 4, 5: 9, 16: 9}","[5, 16, 55]",59169554
K4(BSe)9,mp-680747,2.1626,0.69278239,0.0,"{19: 4, 5: 9, 34: 9}","[5, 19, 34]",59194349
Y2(Ni5B3)3,mp-1204725,0.0,7.89931758,0.016858252204142055,"{39: 2, 28: 15, 5: 9}","[5, 28, 39]",592815392
Tb2(Ni5B3)3,mp-1199398,0.0,7.91024769,0.017033840687868285,"{65: 2, 28: 15, 5: 9}","[5, 28, 65]",592815652
Dy2(Ni5B3)3,mp-1198877,0.0,7.86175312,0.011657191984892457,"{66: 2, 28: 15, 5: 9}","[5, 28, 66]",592815662
Ho2(Ni5B3)3,mp-5571,0.0,7.81927601,0.11360279223557068,"{67: 2, 28: 15, 5: 9}","[5, 28, 67]",592815672
Er2(Ni5B3)3,mp-1199522,0.0,7.85765629,0.0,"{68: 2, 28: 15, 5: 9}","[5, 28, 68]",592815682
Tm2(Ni5B3)3,mp-1203552,0.0,7.7838343,0.0,"{69: 2, 28: 15, 5: 9}","[5, 28, 69]",592815692
Lu2(Ni5B3)3,mp-1201139,0.0,7.89456374,0.0,"{71: 2, 28: 15, 5: 9}","[5, 28, 71]",592815712
Rb2Hg(BSe)9,mp-541819,1.8296999999999999,0.64787354,0.0,"{37: 2, 80: 1, 5: 9, 34: 9}","[5, 34, 37, 80]",59349372801
Rb4(BSe)9,mp-541818,2.1943,0.84687376,0.0,"{37: 4, 5: 9, 34: 9}","[5, 34, 37]",59349374
Cs2Hg(BSe)9,mp-1202194,1.8712,2.61715112,0.0,"{55: 2, 80: 1, 5: 9, 34: 9}","[5, 34, 55, 80]",59349552801
Cs4(BSe)9,mp-1198415,2.5433,0.72886693,0.0,"{55: 4, 5: 9, 34: 9}","[5, 34, 55]",59349554
B9C,mp-633538,0.0,5.65186708,0.36863818920833324,"{5: 9, 6: 1}","[5, 6]",5961
La10(B3C4)3,mp-570357,0.0,8.34487525,0.02084564712902548,"{57: 10, 5: 9, 6: 12}","[5, 6, 57]",596125710
Ce10(B3C4)3,mp-569274,0.0,8.02927831,0.029056137661289227,"{58: 10, 5: 9, 6: 12}","[5, 6, 58]",596125810
Pr10(B3C4)3,mp-567719,0.0,5.2259319,0.034972193360213844,"{59: 10, 5: 9, 6: 12}","[5, 6, 59]",596125910
Nd10(B3C4)3,mp-571244,0.0,5.15902192,0.03686765932257252,"{60: 10, 5: 9, 6: 12}","[5, 6, 60]",596126010
B9N,mp-1079812,0.0,-3.95212226,2.5268346841666673,"{5: 9, 7: 1}","[5, 7]",5971
MgB9N,mp-30091,1.6752999999999991,5.65348591,0.0,"{12: 1, 5: 9, 7: 1}","[5, 7, 12]",5971121
CsB9O13,mp-531006,3.1242,0.79251877,0.10143650616172373,"{55: 1, 5: 9, 8: 13}","[5, 8, 55]",59813551
CsB9O14,mp-680683,5.4514,-0.93998189,0.0062481263368034945,"{55: 1, 5: 9, 8: 14}","[5, 8, 55]",59814551
K2Na(B3O5)3,mp-558293,5.062,-0.28556623,0.0,"{19: 2, 11: 1, 5: 9, 8: 15}","[5, 8, 11, 19]",59815111192
BaNa(B3O5)3,mp-17864,5.5009999999999994,-0.57260115,0.0,"{56: 1, 11: 1, 5: 9, 8: 15}","[5, 8, 11, 56]",59815111561
Ba3Sc(BO2)9,mp-557994,5.2789,0.75645211,0.006512873024197674,"{56: 3, 21: 1, 5: 9, 8: 18}","[5, 8, 21, 56]",59818211563
Ba3Y(BO2)9,mp-559066,5.1876999999999995,0.57522941,0.0078351536962451,"{56: 3, 39: 1, 5: 9, 8: 18}","[5, 8, 39, 56]",59818391563
Ba3In(BO2)9,mp-556038,4.7243,0.98244937,0.008324900524184997,"{56: 3, 49: 1, 5: 9, 8: 18}","[5, 8, 49, 56]",59818491563
Ba3Pr(BO2)9,mp-1214611,5.0748,5.39911607,0.01149332237904055,"{56: 3, 59: 1, 5: 9, 8: 18}","[5, 8, 56, 59]",59818563591
Ba3Nd(BO2)9,mp-1214606,5.1019000000000005,5.43188638,0.011135229717748274,"{56: 3, 60: 1, 5: 9, 8: 18}","[5, 8, 56, 60]",59818563601
Ba3Sm(BO2)9,mp-1214584,5.0836,5.42683789,0.00909740173387874,"{56: 3, 62: 1, 5: 9, 8: 18}","[5, 8, 56, 62]",59818563621
Ba3Eu(BO2)9,mp-1214649,0.0,0.95876801,0.029114988528228025,"{56: 3, 63: 1, 5: 9, 8: 18}","[5, 8, 56, 63]",59818563631
Ba3Gd(BO2)9,mp-1214653,3.6864000000000003,4.12124569,0.009811149771511651,"{56: 3, 64: 1, 5: 9, 8: 18}","[5, 8, 56, 64]",59818563641
Ba3Tb(BO2)9,mp-1214548,5.1617999999999995,5.5947389,0.0,"{56: 3, 65: 1, 5: 9, 8: 18}","[5, 8, 56, 65]",59818563651
Ba3Dy(BO2)9,mp-1214634,5.1786,5.62241238,0.004439662217748719,"{56: 3, 66: 1, 5: 9, 8: 18}","[5, 8, 56, 66]",59818563661
Ba3Ho(BO2)9,mp-1214639,5.1913,5.62528034,0.008291901169362959,"{56: 3, 67: 1, 5: 9, 8: 18}","[5, 8, 56, 67]",59818563671
Ba3Er(BO2)9,mp-1214718,5.217700000000001,5.6540962,0.007850114072587289,"{56: 3, 68: 1, 5: 9, 8: 18}","[5, 8, 56, 68]",59818563681
Ba3Tm(BO2)9,mp-1214609,5.2609,5.73228974,0.0,"{56: 3, 69: 1, 5: 9, 8: 18}","[5, 8, 56, 69]",59818563691
Ba3Lu(BO2)9,mp-561253,5.247299999999999,0.54816874,0.0036953421370942152,"{56: 3, 71: 1, 5: 9, 8: 18}","[5, 8, 56, 71]",59818563711
Ba3Bi(BO2)9,mp-1200141,4.286300000000001,5.62697115,0.009992137177398774,"{56: 3, 83: 1, 5: 9, 8: 18}","[5, 8, 56, 83]",59818563831
Nd(BO2)9,mp-1200214,0.02510000000000001,-0.28220813,0.18428706649553117,"{60: 1, 5: 9, 8: 18}","[5, 8, 60]",59818601
KBa2Zn3B9O19,mp-1223606,3.6287000000000003,4.65085096,0.007249001139695288,"{19: 1, 56: 2, 30: 3, 5: 9, 8: 19}","[5, 8, 19, 30, 56]",59819191303562
B9Pb8O21F,mp-1182634,3.4333000000000005,2.64762756,0.0,"{5: 9, 82: 8, 8: 21, 9: 1}","[5, 8, 9, 82]",5982191828
U2B9O22,mp-1217131,0.07229999999999998,0.31916414,0.12842716897727513,"{92: 2, 5: 9, 8: 22}","[5, 8, 92]",59822922