formula,material_id,band_gap,efermi,energy_above_hull,comp_atoms,sorted_keys_comp_atoms,comp_number
Ba2Nd2MgCu2(BO5)2,mp-2231110,0.10350000000000037,5.14013834,0.3782731162631743,"{56: 2, 60: 2, 12: 1, 29: 2, 5: 2, 8: 10}","[5, 8, 12, 29, 56, 60]",52810121292562602
Mg3Mn3(BO5)2,mp-555830,0.0,3.87772006,0.01663458027779008,"{12: 3, 25: 3, 5: 2, 8: 10}","[5, 8, 12, 25]",52810123253
Mg5Ti(BO5)2,mp-1222168,0.4541999999999997,3.83670848,0.05841897680555519,"{12: 5, 22: 1, 5: 2, 8: 10}","[5, 8, 12, 22]",52810125221
Mg5Sn(BO5)2,mp-1198031,3.8299000000000003,7.00146312,0.0,"{12: 5, 50: 1, 5: 2, 8: 10}","[5, 8, 12, 50]",52810125501
Al4Co(BO5)2,mp-19348,1.7495000000000003,5.97355309,0.11838840042232679,"{13: 4, 27: 1, 5: 2, 8: 10}","[5, 8, 13, 27]",52810134271
LaCeSi2(BO5)2,mp-1223448,0.34060000000000024,7.14602723,0.0032409024999378033,"{57: 1, 58: 1, 14: 2, 5: 2, 8: 10}","[5, 8, 14, 57, 58]",52810142571581
K2Ge3(BO5)2,mp-560019,3.8682999999999996,0.76516773,0.000907602668823948,"{19: 2, 32: 3, 5: 2, 8: 10}","[5, 8, 19, 32]",52810192323
K2B2Se3O10,mp-1202890,4.1143,-0.43353938,0.0,"{19: 2, 5: 2, 34: 3, 8: 10}","[5, 8, 19, 34]",52810192343
Ca(BO5)2,mp-1192983,0.0,-0.42096385,0.2706736273076995,"{20: 1, 5: 2, 8: 10}","[5, 8, 20]",52810201
CaU2(BO5)2,mp-1227453,2.0258000000000003,0.90178534,0.0,"{20: 1, 92: 2, 5: 2, 8: 10}","[5, 8, 20, 92]",52810201922
TiNi5(BO5)2,mp-1217013,0.0,5.04985683,0.03449741305547693,"{22: 1, 28: 5, 5: 2, 8: 10}","[5, 8, 22, 28]",52810221285
VNi5(BO5)2,mp-1216406,0.0,4.36474688,0.023944294722179293,"{23: 1, 28: 5, 5: 2, 8: 10}","[5, 8, 23, 28]",52810231285
V5(BO5)2,mp-771822,0.4389000000000003,4.67845587,0.03395622682598187,"{23: 5, 5: 2, 8: 10}","[5, 8, 23]",52810235
MnCo5(BO5)2,mp-1221855,0.8859999999999997,3.10982363,0.3281880680555602,"{25: 1, 27: 5, 5: 2, 8: 10}","[5, 8, 25, 27]",52810251275
MnNi5(BO5)2,mp-1221366,0.0,4.1619965,0.0024043146111010216,"{25: 1, 28: 5, 5: 2, 8: 10}","[5, 8, 25, 28]",52810251285
MnZn5(BO5)2,mp-1221663,0.0,2.11972634,0.07695412398148971,"{25: 1, 30: 5, 5: 2, 8: 10}","[5, 8, 25, 30]",52810251305
Sr2Mn3(BO5)2,mp-1218788,0.008299999999999974,1.97426401,0.18892331481616953,"{38: 2, 25: 3, 5: 2, 8: 10}","[5, 8, 25, 38]",52810253382
Mn5Ni(BO5)2,mp-1221544,0.10130000000000017,3.74193099,0.011532736111130149,"{25: 5, 28: 1, 5: 2, 8: 10}","[5, 8, 25, 28]",52810255281
Co5Sn(BO5)2,mp-1226176,0.39120000000000044,4.56749449,0.20159417777777833,"{27: 5, 50: 1, 5: 2, 8: 10}","[5, 8, 27, 50]",52810275501
Ni5Ge(BO5)2,mp-1220232,0.07690000000000019,5.28609312,0.05569618888890027,"{28: 5, 32: 1, 5: 2, 8: 10}","[5, 8, 28, 32]",52810285321
ZrNi5(BO5)2,mp-1215311,1.4703,4.60195263,0.051534562222209424,"{40: 1, 28: 5, 5: 2, 8: 10}","[5, 8, 28, 40]",52810285401
Ni5Sn(BO5)2,mp-556514,2.5999,7.14857693,0.0,"{28: 5, 50: 1, 5: 2, 8: 10}","[5, 8, 28, 50]",52810285501
Ni5B2SbO10,mp-1209850,0.0,5.84033256,0.07510141218750377,"{28: 5, 5: 2, 51: 1, 8: 10}","[5, 8, 28, 51]",52810285511
HfNi5(BO5)2,mp-558963,3.1031000000000004,6.97143999,0.0,"{72: 1, 28: 5, 5: 2, 8: 10}","[5, 8, 28, 72]",52810285721
Cu5Sn(BO5)2,mp-1226321,0.011600000000000499,4.42104853,0.06333520560184702,"{29: 5, 50: 1, 5: 2, 8: 10}","[5, 8, 29, 50]",52810295501
B2Se3O10,mp-1194590,3.738,3.77655313,0.0,"{5: 2, 34: 3, 8: 10}","[5, 8, 34]",52810343
RbB2Se3O10,mp-1196428,0.15960000000000002,0.27902096,0.062407048496099904,"{37: 1, 5: 2, 34: 3, 8: 10}","[5, 8, 34, 37]",52810343371
Mg(AlB14)2,mp-531611,0.7667999999999999,6.16081801,0.0,"{12: 1, 13: 2, 5: 28}","[5, 12, 13]",528121132
GaB2(PO6)2,mp-1203116,0.0,-0.15531459,0.3016616924387243,"{31: 1, 5: 2, 15: 2, 8: 12}","[5, 8, 15, 31]",52812152311
B2Pb6SO12,mp-553930,2.7033000000000005,2.9954303,0.0,"{5: 2, 82: 6, 16: 1, 8: 12}","[5, 8, 16, 82]",52812161826
K2B2(SO4)3,mp-1212598,0.5191000000000001,2.07570938,0.33446197179594606,"{19: 2, 5: 2, 16: 3, 8: 12}","[5, 8, 16, 19]",52812163192
K3Nb3(BO6)2,mp-558828,2.3347,0.50472338,0.0,"{19: 3, 41: 3, 5: 2, 8: 12}","[5, 8, 19, 41]",52812193413
K3Ta3(BO6)2,mp-9870,2.6703,0.83911712,0.0,"{19: 3, 73: 3, 5: 2, 8: 12}","[5, 8, 19, 73]",52812193733
Ba3Ti3(BO6)2,mp-11772,2.1313,2.35640327,0.026880787749993473,"{56: 3, 22: 3, 5: 2, 8: 12}","[5, 8, 22, 56]",52812223563
CrB2(PbO2)6,mp-1197022,1.8898000000000001,2.95321062,0.0009535368760253959,"{24: 1, 5: 2, 82: 6, 8: 12}","[5, 8, 24, 82]",52812241826
B2Mo(PbO2)6,mp-1196917,2.4454000000000002,3.25996041,0.0,"{5: 2, 42: 1, 82: 6, 8: 12}","[5, 8, 42, 82]",52812421826
B2Pb6WO12,mp-1198358,2.56,5.562958,0.0017165940029757465,"{5: 2, 82: 6, 74: 1, 8: 12}","[5, 8, 74, 82]",52812741826
Na5B2P3O13,mp-557836,5.0786999999999995,0.85901406,0.0,"{11: 5, 5: 2, 15: 3, 8: 13}","[5, 8, 11, 15]",52813115153
Cs2B2S3O13,mp-1019604,5.8455,-0.31399207,0.0,"{55: 2, 5: 2, 16: 3, 8: 13}","[5, 8, 16, 55]",52813163552
BaB2S3O13,mp-1019539,6.181,0.30519028,0.0,"{56: 1, 5: 2, 16: 3, 8: 13}","[5, 8, 16, 56]",52813163561
Mg3B2SO14,mp-1196808,0.0,-0.80888029,0.41960863787499125,"{12: 3, 5: 2, 16: 1, 8: 14}","[5, 8, 12, 16]",52814123161
Ba2CaSi4(BO7)2,mp-1019518,4.8764,1.4929108,0.0,"{56: 2, 20: 1, 14: 4, 5: 2, 8: 14}","[5, 8, 14, 20, 56]",52814144201562
K3LuB2(PO7)2,mp-1181370,0.1966,-0.99306528,0.25200805778707647,"{19: 3, 71: 1, 5: 2, 15: 2, 8: 14}","[5, 8, 15, 19, 71]",52814152193711
Rb4B2S4O17,mp-1020662,5.153700000000001,4.50269611,0.0,"{37: 4, 5: 2, 16: 4, 8: 17}","[5, 8, 16, 37]",52817164374
MgAl6FeSi2(BO9)2,mp-1222184,3.7273000000000005,3.37706205,0.0,"{12: 1, 13: 6, 26: 1, 14: 2, 5: 2, 8: 18}","[5, 8, 12, 13, 14, 26]",52818121136142261
Ba2MgFe2B2(P2O9)2,mp-1234736,3.5197,2.81118265,0.02491528275863608,"{56: 2, 12: 1, 26: 2, 5: 2, 15: 4, 8: 18}","[5, 8, 12, 15, 26, 56]",52818121154262562
Al9Cr(BO9)2,mp-1228622,3.9465999999999997,2.65024664,0.003216583100041248,"{13: 9, 24: 1, 5: 2, 8: 18}","[5, 8, 13, 24]",52818139241
K5Mn2B2P5O21,mp-1226339,0.5683,1.26880499,0.0,"{19: 5, 25: 2, 5: 2, 15: 5, 8: 21}","[5, 8, 15, 19, 25]",52821155195252
K4U5B2O21,mp-1224701,0.14669999999999994,0.69022575,0.0639808456126687,"{19: 4, 92: 5, 5: 2, 8: 21}","[5, 8, 19, 92]",52821194925
Ta(BO)2,mp-1208744,0.0,1.13096935,1.0784908555308643,"{73: 1, 5: 2, 8: 2}","[5, 8, 73]",5282731
B2O3,mp-306,6.3017,-0.41221484,0.0,"{5: 2, 8: 3}","[5, 8]",5283
BaNa4Ti2Si10(BO15)2,mp-1228057,3.4488,1.43932006,0.0,"{56: 1, 11: 4, 22: 2, 14: 10, 5: 2, 8: 30}","[5, 8, 11, 14, 22, 56]",528301141410222561
Ce6Ge9(BO15)2,mp-683922,0.18230000000000057,7.83270345,0.10577165606382977,"{58: 6, 32: 9, 5: 2, 8: 30}","[5, 8, 32, 58]",52830329586
Bi24B2O39,mp-775842,2.0694999999999997,4.77866042,0.057407314423079114,"{83: 24, 5: 2, 8: 39}","[5, 8, 83]",528398324
LaB2ClO4,mp-559417,4.154100000000001,2.63125323,0.0,"{57: 1, 5: 2, 17: 1, 8: 4}","[5, 8, 17, 57]",5284171571
CeB2ClO4,mp-556519,0.13450000000000006,5.30898349,0.019833054374990056,"{58: 1, 5: 2, 17: 1, 8: 4}","[5, 8, 17, 58]",5284171581
PrB2ClO4,mp-556450,5.0695,1.44743554,0.0,"{59: 1, 5: 2, 17: 1, 8: 4}","[5, 8, 17, 59]",5284171591
Ca(BO2)2,mp-8056,6.020300000000001,1.29058836,0.0,"{20: 1, 5: 2, 8: 4}","[5, 8, 20]",5284201
Mn(BO2)2,mp-1199954,4.4584,7.99127579,0.04017187789285437,"{25: 1, 5: 2, 8: 4}","[5, 8, 25]",5284251
Fe(BO2)2,mp-1279062,4.099600000000001,3.65140822,0.011313907619051378,"{26: 1, 5: 2, 8: 4}","[5, 8, 26]",5284261
Co(BO2)2,mp-1104788,2.0693999999999995,3.50767886,0.1587548599206361,"{27: 1, 5: 2, 8: 4}","[5, 8, 27]",5284271
Ni(BO2)2,mp-555102,0.0,4.84278775,0.005562201706351466,"{28: 1, 5: 2, 8: 4}","[5, 8, 28]",5284281
Cu(BO2)2,mp-4870,0.0,3.34963412,0.0,"{29: 1, 5: 2, 8: 4}","[5, 8, 29]",5284291
Sr(BO2)2,mp-9749,4.9456,0.36734952,0.0,"{38: 1, 5: 2, 8: 4}","[5, 8, 38]",5284381
B2PdO4,mp-540900,0.7786,3.24578205,0.012453169047610402,"{5: 2, 46: 1, 8: 4}","[5, 8, 46]",5284461
Cd(BO2)2,mp-778103,3.3861,0.93924344,0.027266702321432135,"{48: 1, 5: 2, 8: 4}","[5, 8, 48]",5284481
Ba(BO2)2,mp-540659,4.522399999999999,0.06293808,0.0,"{56: 1, 5: 2, 8: 4}","[5, 8, 56]",5284561
Eu(BO2)2,mp-540879,0.29029999999999934,5.0099785,0.0,"{63: 1, 5: 2, 8: 4}","[5, 8, 63]",5284631
LaB2O4F,mp-1198007,4.9384,7.0298739,0.005847459440962766,"{57: 1, 5: 2, 8: 4, 9: 1}","[5, 8, 9, 57]",528491571
CeB2O4F,mp-1199150,0.2384000000000004,5.44774646,0.023007321753464538,"{58: 1, 5: 2, 8: 4, 9: 1}","[5, 8, 9, 58]",528491581
BiB2O4F,mp-558753,4.1919,2.95894464,0.0007315004166699168,"{83: 1, 5: 2, 8: 4, 9: 1}","[5, 8, 9, 83]",528491831
NaScB2O5,mp-555447,4.9235999999999995,0.83891793,0.0,"{11: 1, 21: 1, 5: 2, 8: 5}","[5, 8, 11, 21]",5285111211
Na4B2O5,mp-27564,3.6854,0.93927927,0.0,"{11: 4, 5: 2, 8: 5}","[5, 8, 11]",5285114
CaMgB2O5,mp-6585,5.311999999999999,1.93629679,0.0019687802777799135,"{20: 1, 12: 1, 5: 2, 8: 5}","[5, 8, 12, 20]",5285121201
MgMnB2O5,mp-1222009,3.3863,2.89849745,0.0,"{12: 1, 25: 1, 5: 2, 8: 5}","[5, 8, 12, 25]",5285121251
SrMgB2O5,mp-1020634,4.6961,1.46463589,0.0,"{38: 1, 12: 1, 5: 2, 8: 5}","[5, 8, 12, 38]",5285121381
Mg2B2O5,mp-18256,5.1536,2.07333036,0.0,"{12: 2, 5: 2, 8: 5}","[5, 8, 12]",5285122
Si2B2O5,mp-972793,0.0,8.19262314,1.9173956394444467,"{14: 2, 5: 2, 8: 5}","[5, 8, 14]",5285142
Er2B2Cl2O5,mp-556986,5.0806000000000004,-0.76216487,0.0,"{68: 2, 5: 2, 17: 2, 8: 5}","[5, 8, 17, 68]",5285172682
CaMnB2O5,mp-555385,1.5225,5.8032625,0.004514961527764427,"{20: 1, 25: 1, 5: 2, 8: 5}","[5, 8, 20, 25]",5285201251
BaCaB2O5,mp-1019542,4.4673,0.93304749,0.0,"{56: 1, 20: 1, 5: 2, 8: 5}","[5, 8, 20, 56]",5285201561
Ca2B2O5,mp-1019560,4.7075000000000005,1.27678486,0.0,"{20: 2, 5: 2, 8: 5}","[5, 8, 20]",5285202
MnCoB2O5,mp-1221788,2.5223999999999998,2.50107672,0.11982056374074723,"{25: 1, 27: 1, 5: 2, 8: 5}","[5, 8, 25, 27]",5285251271
Fe2B2O5,mp-19333,3.2492,2.3127903,0.0,"{26: 2, 5: 2, 8: 5}","[5, 8, 26]",5285262
Co2B2O5,mp-510055,0.0,3.50210252,0.22321266802469175,"{27: 2, 5: 2, 8: 5}","[5, 8, 27]",5285272
BaCuB2O5,mp-551135,0.5047000000000001,1.89780508,0.02775153777776751,"{56: 1, 29: 1, 5: 2, 8: 5}","[5, 8, 29, 56]",5285291561
ZnCdB2O5,mp-1207444,2.7413000000000003,3.44640356,0.01976086638888752,"{30: 1, 48: 1, 5: 2, 8: 5}","[5, 8, 30, 48]",5285301481
SrCdB2O5,mp-1195626,3.5305999999999997,1.16383047,0.0,"{38: 1, 48: 1, 5: 2, 8: 5}","[5, 8, 38, 48]",5285381481
Sr2B2O5,mp-5401,4.283,0.91223051,0.0,"{38: 2, 5: 2, 8: 5}","[5, 8, 38]",5285382
ZrB2O5,mp-559571,3.5293,3.29855948,0.0,"{40: 1, 5: 2, 8: 5}","[5, 8, 40]",5285401
Cd2B2O5,mp-7210,2.4657,0.5628616,0.0,"{48: 2, 5: 2, 8: 5}","[5, 8, 48]",5285482
B2TeO5,mp-768235,3.15,0.50786888,0.062019125833328914,"{5: 2, 52: 1, 8: 5}","[5, 8, 52]",5285521
Ba2B2O5,mp-771158,3.9978,0.70103267,0.0,"{56: 2, 5: 2, 8: 5}","[5, 8, 56]",5285562
Eu2B2O5,mp-1212596,0.08190000000000008,4.8583227,0.0,"{63: 2, 5: 2, 8: 5}","[5, 8, 63]",5285632
HfB2O5,mp-559617,4.4146,3.50507361,0.0,"{72: 1, 5: 2, 8: 5}","[5, 8, 72]",5285721
TlB2O5,mp-731996,1.2792999999999999,0.07858848,0.3219089726302098,"{81: 1, 5: 2, 8: 5}","[5, 8, 81]",5285811
B2Pb2O5,mp-1192421,2.719,3.43233441,0.0006048655026260619,"{5: 2, 82: 2, 8: 5}","[5, 8, 82]",5285822
BiB2O5,mp-768314,0.0,1.85808819,0.09024721291666626,"{83: 1, 5: 2, 8: 5}","[5, 8, 83]",5285831
ThB2O5,mp-28641,4.8178,1.60202761,0.009179928750000954,"{90: 1, 5: 2, 8: 5}","[5, 8, 90]",5285901
Na3B2PO5F4,mp-1197849,5.6152999999999995,-0.04964214,0.0,"{11: 3, 5: 2, 15: 1, 8: 5, 9: 4}","[5, 8, 9, 11, 15]",528594113151
BaNaSc(BO3)2,mp-1182298,3.8127999999999997,1.75196207,0.0,"{56: 1, 11: 1, 21: 1, 5: 2, 8: 6}","[5, 8, 11, 21, 56]",5286111211561
BaNaY(BO3)2,mp-1182342,3.335,4.94936144,0.006637477121214097,"{56: 1, 11: 1, 39: 1, 5: 2, 8: 6}","[5, 8, 11, 39, 56]",5286111391561
Na3Sc(BO3)2,mp-1191513,3.6398,1.66262304,0.0,"{11: 3, 21: 1, 5: 2, 8: 6}","[5, 8, 11, 21]",5286113211
Na3V(BO3)2,mp-773603,1.7706999999999997,4.11535807,0.045934500208325346,"{11: 3, 23: 1, 5: 2, 8: 6}","[5, 8, 11, 23]",5286113231
Na3Cr(BO3)2,mp-773526,2.4378999999999995,4.46384307,0.04232076833333309,"{11: 3, 24: 1, 5: 2, 8: 6}","[5, 8, 11, 24]",5286113241
Na3Mn(BO3)2,mp-773605,1.2168,1.53186493,0.03499961124997508,"{11: 3, 25: 1, 5: 2, 8: 6}","[5, 8, 11, 25]",5286113251
Na3Fe(BO3)2,mp-772223,2.1688,3.51276976,0.027317408125003162,"{11: 3, 26: 1, 5: 2, 8: 6}","[5, 8, 11, 26]",5286113261
Na3Co(BO3)2,mp-773604,0.9759000000000002,2.18776977,0.09958875798610123,"{11: 3, 27: 1, 5: 2, 8: 6}","[5, 8, 11, 27]",5286113271
Na3Ni(BO3)2,mp-772229,0.0,1.26443116,0.04475639104167062,"{11: 3, 28: 1, 5: 2, 8: 6}","[5, 8, 11, 28]",5286113281
Na3Y(BO3)2,mp-556039,3.5665000000000004,1.11141449,0.0,"{11: 3, 39: 1, 5: 2, 8: 6}","[5, 8, 11, 39]",5286113391
Na3La(BO3)2,mp-1210472,3.7482,1.85555694,0.0,"{11: 3, 57: 1, 5: 2, 8: 6}","[5, 8, 11, 57]",5286113571
Na3Nd(BO3)2,mp-558805,4.1712,1.07253854,0.0,"{11: 3, 60: 1, 5: 2, 8: 6}","[5, 8, 11, 60]",5286113601
Na3Bi(BO3)2,mp-775830,3.1380999999999997,1.621331,0.016138378333332426,"{11: 3, 83: 1, 5: 2, 8: 6}","[5, 8, 11, 83]",5286113831
BaMgTi(BO3)2,mp-2217557,0.0,5.34604199,0.33323266106057314,"{56: 1, 12: 1, 22: 1, 5: 2, 8: 6}","[5, 8, 12, 22, 56]",5286121221561
MgMn2(BO3)2,mp-2240029,2.5246000000000004,2.68696944,0.0556352044318178,"{12: 1, 25: 2, 5: 2, 8: 6}","[5, 8, 12, 25]",5286121252
MgFe2(BO3)2,mp-2240895,2.9047,2.34364565,0.13580534696022628,"{12: 1, 26: 2, 5: 2, 8: 6}","[5, 8, 12, 26]",5286121262
MgCo2(BO3)2,mp-2217796,2.3709,1.47809761,0.2999091498484905,"{12: 1, 27: 2, 5: 2, 8: 6}","[5, 8, 12, 27]",5286121272
Sr2Mg(BO3)2,mp-13541,4.579700000000001,2.47785364,0.0,"{38: 2, 12: 1, 5: 2, 8: 6}","[5, 8, 12, 38]",5286121382
MgSn(BO3)2,mp-11715,3.6229999999999998,3.44967299,0.0,"{12: 1, 50: 1, 5: 2, 8: 6}","[5, 8, 12, 50]",5286121501
Ba2Mg(BO3)2,mp-9259,4.532399999999999,2.41456647,0.0,"{56: 2, 12: 1, 5: 2, 8: 6}","[5, 8, 12, 56]",5286121562
Mg3(BO3)2,mp-5005,5.143,2.68730421,0.0,"{12: 3, 5: 2, 8: 6}","[5, 8, 12]",5286123
Ba2YB2ClO6,mp-866310,4.0621,1.35654584,0.0,"{56: 2, 39: 1, 5: 2, 17: 1, 8: 6}","[5, 8, 17, 39, 56]",5286171391562
Ba2GdB2ClO6,mp-866304,0.0,0.55926524,0.0,"{56: 2, 64: 1, 5: 2, 17: 1, 8: 6}","[5, 8, 17, 56, 64]",5286171562641
Ba2HoB2ClO6,mp-558195,4.0845,1.36900005,0.0,"{56: 2, 67: 1, 5: 2, 17: 1, 8: 6}","[5, 8, 17, 56, 67]",5286171562671
Ba2LuB2ClO6,mp-1228639,2.1046,1.28887798,0.0,"{56: 2, 71: 1, 5: 2, 17: 1, 8: 6}","[5, 8, 17, 56, 71]",5286171562711
Ce3B2(ClO2)3,mp-680695,0.0,6.489144,0.0,"{58: 3, 5: 2, 17: 3, 8: 6}","[5, 8, 17, 58]",5286173583
KBaY(BO3)2,mp-1223458,3.9314,1.56487405,0.0,"{19: 1, 56: 1, 39: 1, 5: 2, 8: 6}","[5, 8, 19, 39, 56]",5286191391561
KNb(BO3)2,mp-1200391,3.5488,-0.24841636,0.0001278383399085925,"{19: 1, 41: 1, 5: 2, 8: 6}","[5, 8, 19, 41]",5286191411
KB2SbO6,mp-1105367,2.9208000000000007,4.18158,0.004042440070184838,"{19: 1, 5: 2, 51: 1, 8: 6}","[5, 8, 19, 51]",5286191511
KTa(BO3)2,mp-555150,3.6136,-0.09645787,0.0,"{19: 1, 73: 1, 5: 2, 8: 6}","[5, 8, 19, 73]",5286191731
K2Zr(BO3)2,mp-8891,3.4092,1.06384504,0.0,"{19: 2, 40: 1, 5: 2, 8: 6}","[5, 8, 19, 40]",5286192401
K3Y(BO3)2,mp-555495,3.1826,1.035122,0.0,"{19: 3, 39: 1, 5: 2, 8: 6}","[5, 8, 19, 39]",5286193391
K3Nd(BO3)2,mp-1211700,3.3697000000000004,0.82502275,0.0,"{19: 3, 60: 1, 5: 2, 8: 6}","[5, 8, 19, 60]",5286193601
K3Sm(BO3)2,mp-559574,3.4183,0.89003016,0.0,"{19: 3, 62: 1, 5: 2, 8: 6}","[5, 8, 19, 62]",5286193621
K3Gd(BO3)2,mp-1211764,2.6966,0.82468933,0.0,"{19: 3, 64: 1, 5: 2, 8: 6}","[5, 8, 19, 64]",5286193641
K3Tb(BO3)2,mp-1211631,3.2054,0.83727488,0.0,"{19: 3, 65: 1, 5: 2, 8: 6}","[5, 8, 19, 65]",5286193651
K3Lu(BO3)2,mp-1211659,3.2916000000000003,0.90874153,0.0,"{19: 3, 71: 1, 5: 2, 8: 6}","[5, 8, 19, 71]",5286193711
Ca(BO3)2,mp-1105926,0.0,-0.45335727,0.32286967611111095,"{20: 1, 5: 2, 8: 6}","[5, 8, 20]",5286201
CaSn(BO3)2,mp-14398,3.7069,2.68540331,0.0,"{20: 1, 50: 1, 5: 2, 8: 6}","[5, 8, 20, 50]",5286201501
Ba2Ca(BO3)2,mp-549737,4.080500000000001,1.79360915,0.0,"{56: 2, 20: 1, 5: 2, 8: 6}","[5, 8, 20, 56]",5286201562
Ca3(BO3)2,mp-3575,4.8224,2.06670923,0.0,"{20: 3, 5: 2, 8: 6}","[5, 8, 20]",5286203
YSc(BO3)2,mp-1215941,4.452,1.93360883,0.007361825333314087,"{39: 1, 21: 1, 5: 2, 8: 6}","[5, 8, 21, 39]",5286211391
HoSc(BO3)2,mp-1223873,4.4611,1.80810308,0.009991754999973068,"{67: 1, 21: 1, 5: 2, 8: 6}","[5, 8, 21, 67]",5286211671
ErSc(BO3)2,mp-1225475,4.449,1.80563561,0.009516492499995977,"{68: 1, 21: 1, 5: 2, 8: 6}","[5, 8, 21, 68]",5286211681
TmSc(BO3)2,mp-1216586,4.434699999999999,1.8359155,0.0,"{69: 1, 21: 1, 5: 2, 8: 6}","[5, 8, 21, 69]",5286211691
LuSc(BO3)2,mp-1222283,4.4627,1.83024519,0.0,"{71: 1, 21: 1, 5: 2, 8: 6}","[5, 8, 21, 71]",5286211711
BaTi(BO3)2,mp-11659,2.3876999999999997,1.75916452,0.002753993562462753,"{56: 1, 22: 1, 5: 2, 8: 6}","[5, 8, 22, 56]",5286221561
YCr(BO3)2,mp-1232521,3.2276000000000002,2.24780261,0.008678563833328212,"{39: 1, 24: 1, 5: 2, 8: 6}","[5, 8, 24, 39]",5286241391
MnSn(BO3)2,mp-22213,2.5711,3.71530891,0.0,"{25: 1, 50: 1, 5: 2, 8: 6}","[5, 8, 25, 50]",5286251501
Mn3(BO3)2,mp-19185,2.0333,3.41515292,0.0,"{25: 3, 5: 2, 8: 6}","[5, 8, 25]",5286253
CoCu2(BO3)2,mp-620325,0.0,3.67252636,0.1470453057323189,"{27: 1, 29: 2, 5: 2, 8: 6}","[5, 8, 27, 29]",5286271292
Co3(BO3)2,mp-22632,0.0,3.61529336,0.0,"{27: 3, 5: 2, 8: 6}","[5, 8, 27]",5286273
Ni3(BO3)2,mp-18806,0.0,4.84456151,0.0,"{28: 3, 5: 2, 8: 6}","[5, 8, 28]",5286283
Sr2Cu(BO3)2,mp-9660,0.5013000000000001,2.81627747,0.012883198409078034,"{38: 2, 29: 1, 5: 2, 8: 6}","[5, 8, 29, 38]",5286291382
Ba2Cu(BO3)2,mp-559180,2.1332999999999998,2.33827004,0.004801486590890747,"{56: 2, 29: 1, 5: 2, 8: 6}","[5, 8, 29, 56]",5286291562
CuB2(PbO3)2,mp-554812,0.0,4.62579724,0.007504297532465287,"{29: 1, 5: 2, 82: 2, 8: 6}","[5, 8, 29, 82]",5286291822
ZnCu2(BO3)2,mp-1207451,0.4604999999999997,2.61959353,0.07285284874999665,"{30: 1, 29: 2, 5: 2, 8: 6}","[5, 8, 29, 30]",5286292301
SrCu2(BO3)2,mp-1191148,0.0,2.4109306,0.03861641886363554,"{38: 1, 29: 2, 5: 2, 8: 6}","[5, 8, 29, 38]",5286292381
CdCu2(BO3)2,mp-560100,0.10600000000000032,2.57434879,0.05395172840911577,"{48: 1, 29: 2, 5: 2, 8: 6}","[5, 8, 29, 48]",5286292481
Cu3(BO3)2,mp-1226691,0.042100000000000026,2.9204805,0.0489071818939415,"{29: 3, 5: 2, 8: 6}","[5, 8, 29]",5286293
Ba2Zn(BO3)2,mp-559138,3.3327999999999998,0.86298631,0.0,"{56: 2, 30: 1, 5: 2, 8: 6}","[5, 8, 30, 56]",5286301562
Zn2Cd(BO3)2,mp-1215713,2.4333,0.74300542,0.029410600227270933,"{30: 2, 48: 1, 5: 2, 8: 6}","[5, 8, 30, 48]",5286302481
BaZn2(BO3)2,mp-557974,3.2287,0.77520449,0.012499575681799158,"{56: 1, 30: 2, 5: 2, 8: 6}","[5, 8, 30, 56]",5286302561
Zn2B2PbO6,mp-560471,3.3261999999999996,0.95854183,0.0,"{30: 2, 5: 2, 82: 1, 8: 6}","[5, 8, 30, 82]",5286302821
Zn3(BO3)2,mp-557683,2.7833,0.28284038,0.013102456060606116,"{30: 3, 5: 2, 8: 6}","[5, 8, 30]",5286303
RbNb(BO3)2,mp-556808,3.1355,-0.35710246,0.0,"{37: 1, 41: 1, 5: 2, 8: 6}","[5, 8, 37, 41]",5286371411
RbB2SbO6,mp-1209317,2.3667,3.44168203,0.04004284766667965,"{37: 1, 5: 2, 51: 1, 8: 6}","[5, 8, 37, 51]",5286371511
RbTa(BO3)2,mp-1209097,3.4509000000000003,3.2197645,0.0,"{37: 1, 73: 1, 5: 2, 8: 6}","[5, 8, 37, 73]",5286371731
SrSn(BO3)2,mp-8000,3.6177999999999995,2.19954216,0.0,"{38: 1, 50: 1, 5: 2, 8: 6}","[5, 8, 38, 50]",5286381501
Sr3(BO3)2,mp-16432,4.398000000000001,1.35293907,0.0,"{38: 3, 5: 2, 8: 6}","[5, 8, 38]",5286383
BaZr(BO3)2,mp-559348,4.1173,1.18226178,0.0,"{56: 1, 40: 1, 5: 2, 8: 6}","[5, 8, 40, 56]",5286401561
CsNb(BO3)2,mp-6257,3.2987,-0.09973721,0.0,"{55: 1, 41: 1, 5: 2, 8: 6}","[5, 8, 41, 55]",5286411551
NbTl(BO3)2,mp-559057,3.4093,0.47954161,0.0,"{41: 1, 81: 1, 5: 2, 8: 6}","[5, 8, 41, 81]",5286411811
Ba2Cd(BO3)2,mp-1102943,2.8851000000000004,1.65105378,0.0,"{56: 2, 48: 1, 5: 2, 8: 6}","[5, 8, 48, 56]",5286481562
Cd3(BO3)2,mp-5560,1.4576,1.44273313,0.0,"{48: 3, 5: 2, 8: 6}","[5, 8, 48]",5286483
B2TeO6,mp-779332,2.5854999999999997,0.046384,0.08923299212963087,"{5: 2, 52: 1, 8: 6}","[5, 8, 52]",5286521
CsTa(BO3)2,mp-9309,3.4027,0.26326579,0.0,"{55: 1, 73: 1, 5: 2, 8: 6}","[5, 8, 55, 73]",5286551731
BaHf(BO3)2,mp-1105495,4.7103,5.95017701,0.0,"{56: 1, 72: 1, 5: 2, 8: 6}","[5, 8, 56, 72]",5286561721
Ba3(BO3)2,mp-755417,4.1693,1.02019382,0.0,"{56: 3, 5: 2, 8: 6}","[5, 8, 56]",5286563