formula,material_id,band_gap,efermi,energy_above_hull,comp_atoms,sorted_keys_comp_atoms,comp_number
Li2FeBO4,mp-771016,2.1638,0.20831923,0.0369681728125002,"{3: 2, 26: 1, 5: 1, 8: 4}","[3, 5, 8, 26]",325184261
Li2CoBO4,mp-752707,1.4304000000000001,1.43958577,0.07367826937499977,"{3: 2, 27: 1, 5: 1, 8: 4}","[3, 5, 8, 27]",325184271
Li2NiBO4,mp-771080,0.9314,1.86466081,0.08243056572916707,"{3: 2, 28: 1, 5: 1, 8: 4}","[3, 5, 8, 28]",325184281
Li2BSeO4,mp-770832,2.0982,0.18601169,0.06660748370767688,"{3: 2, 5: 1, 34: 1, 8: 4}","[3, 5, 8, 34]",325184341
Li2SnBO4,mp-770833,1.0700000000000003,2.47706564,0.07971834484374796,"{3: 2, 50: 1, 5: 1, 8: 4}","[3, 5, 8, 50]",325184501
Li2BSbO4,mp-770654,1.6851999999999996,2.70604484,0.07299038406249991,"{3: 2, 5: 1, 51: 1, 8: 4}","[3, 5, 8, 51]",325184511
Li2BiBO4,mp-778115,2.3147,2.05101177,0.06377535739583262,"{3: 2, 83: 1, 5: 1, 8: 4}","[3, 5, 8, 83]",325184831
Li2BiBO5,mp-768764,0.0,2.61733329,0.06405714513889293,"{3: 2, 83: 1, 5: 1, 8: 5}","[3, 5, 8, 83]",325185831
Li2SiBSbO7,mp-772132,2.5145,1.30873247,0.09026537847221494,"{3: 2, 14: 1, 5: 1, 51: 1, 8: 7}","[3, 5, 8, 14, 51]",325187141511
Li2VBPO7,mp-771701,1.5137,0.46451037,0.09443133258928338,"{3: 2, 23: 1, 5: 1, 15: 1, 8: 7}","[3, 5, 8, 15, 23]",325187151231
Li2MnBPO7,mp-771706,0.49470000000000003,0.64316226,0.07461867802951261,"{3: 2, 25: 1, 5: 1, 15: 1, 8: 7}","[3, 5, 8, 15, 25]",325187151251
Li2FeBPO7,mp-777716,0.0,0.43518076,0.264280798318449,"{3: 2, 26: 1, 5: 1, 15: 1, 8: 7}","[3, 5, 8, 15, 26]",325187151261
Li2SnBPO7,mp-771707,2.7306999999999997,1.32817039,0.09776590108631122,"{3: 2, 50: 1, 5: 1, 15: 1, 8: 7}","[3, 5, 8, 15, 50]",325187151501
Li2MnBAsO7,mp-772182,0.49169999999999997,0.28666684,0.0839331520734099,"{3: 2, 25: 1, 5: 1, 33: 1, 8: 7}","[3, 5, 8, 25, 33]",325187251331
Li2FeBAsO7,mp-1177952,0.2979,-0.0799481,0.09560770250495398,"{3: 2, 26: 1, 5: 1, 33: 1, 8: 7}","[3, 5, 8, 26, 33]",325187261331
NaLi2B(PO4)2,mp-1020646,5.8332999999999995,0.88492039,0.0,"{11: 1, 3: 2, 5: 1, 15: 2, 8: 8}","[3, 5, 8, 11, 15]",325188111152
Li2BF5,mp-1188485,7.5703000000000005,-2.25073476,0.0349704858333304,"{3: 2, 5: 1, 9: 5}","[3, 5, 9]",325195
Li2B2S5,mp-29410,2.4427000000000003,1.56533848,0.0,"{3: 2, 5: 2, 16: 5}","[3, 5, 16]",3252165
Li2B2Se5,mp-30100,1.7046999999999999,2.59944206,0.0,"{3: 2, 5: 2, 34: 5}","[3, 5, 34]",3252345
Li2B2Rh3,mp-605839,0.0,5.14140466,0.0,"{3: 2, 5: 2, 45: 3}","[3, 5, 45]",3252453
Li2B2C,mp-1078212,0.0,3.50783841,0.4097141330000005,"{3: 2, 5: 2, 6: 1}","[3, 5, 6]",325261
Cs2Li2B2P4O15,mp-1019606,5.4224000000000006,0.47190838,0.0,"{55: 2, 3: 2, 5: 2, 15: 4, 8: 15}","[3, 5, 8, 15, 55]",3252815154552
Cs3NaLi2(BO3)2,mp-607931,3.4539999999999997,0.94143611,0.0,"{55: 3, 11: 1, 3: 2, 5: 2, 8: 6}","[3, 5, 8, 11, 55]",325286111553
Li2Ti(BO3)2,mp-759926,2.9516,0.46083666,0.06196080409090676,"{3: 2, 22: 1, 5: 2, 8: 6}","[3, 5, 8, 22]",325286221
Li2Mn(BO3)2,mp-776779,1.7429999999999999,0.24919652,0.07919770595454434,"{3: 2, 25: 1, 5: 2, 8: 6}","[3, 5, 8, 25]",325286251
Li2MnFe(BO3)2,mp-756125,2.9413,1.76012747,0.0029580056249960407,"{3: 2, 25: 1, 26: 1, 5: 2, 8: 6}","[3, 5, 8, 25, 26]",325286251261
Li2Fe(BO3)2,mp-1177982,0.0,1.08492509,0.07858461377651871,"{3: 2, 26: 1, 5: 2, 8: 6}","[3, 5, 8, 26]",325286261
Li2Sn(BO3)2,mp-759667,3.2075000000000005,1.37146226,0.07113624090909898,"{3: 2, 50: 1, 5: 2, 8: 6}","[3, 5, 8, 50]",325286501
Li2Bi(BO3)2,mp-768437,0.0,1.18402013,0.06872005181818341,"{3: 2, 83: 1, 5: 2, 8: 6}","[3, 5, 8, 83]",325286831
Li2Fe2B2O7,mp-779057,1.9294,1.96970692,0.08237167749998875,"{3: 2, 26: 2, 5: 2, 8: 7}","[3, 5, 8, 26]",325287262
Li2Bi2B2O7,mp-768821,2.696,2.2825882,0.06144025833333089,"{3: 2, 83: 2, 5: 2, 8: 7}","[3, 5, 8, 83]",325287832
Li2V5B3O13,mp-772588,1.5717000000000003,3.44588434,0.04378763293476595,"{3: 2, 23: 5, 5: 3, 8: 13}","[3, 5, 8, 23]",3253813235
Li2Cr5B3O13,mp-772573,1.2860999999999998,3.3920863,0.0889145080706566,"{3: 2, 24: 5, 5: 3, 8: 13}","[3, 5, 8, 24]",3253813245
Li2Fe5B3O13,mp-772565,1.4087,2.38696266,0.10746049676629887,"{3: 2, 26: 5, 5: 3, 8: 13}","[3, 5, 8, 26]",3253813265
Li2Lu5B3O13,mp-1210908,4.4597,1.2683652,0.0020799457608635663,"{3: 2, 71: 5, 5: 3, 8: 13}","[3, 5, 8, 71]",3253813715
Li2Bi5B3O13,mp-768740,2.0835999999999997,3.47781557,0.04210080625000234,"{3: 2, 83: 5, 5: 3, 8: 13}","[3, 5, 8, 83]",3253813835
Li2B3O4F3,mp-1196457,6.573499999999999,-1.83500441,0.0,"{3: 2, 5: 3, 8: 4, 9: 3}","[3, 5, 8, 9]",32538493
Li2B3PO8,mp-1020015,5.4366,0.45074699,0.0,"{3: 2, 5: 3, 15: 1, 8: 8}","[3, 5, 8, 15]",325388151
RbLi2V2(BO3)3,mp-772424,2.1205999999999996,1.19379451,0.06251748165441384,"{37: 1, 3: 2, 23: 2, 5: 3, 8: 9}","[3, 5, 8, 23, 37]",325389232371
RbLi2Cr2(BO3)3,mp-770630,2.0057,1.19591669,0.10087357863970858,"{37: 1, 3: 2, 24: 2, 5: 3, 8: 9}","[3, 5, 8, 24, 37]",325389242371
RbLi2Mn2(BO3)3,mp-770725,0.24209999999999993,0.42671164,0.0887995436764708,"{37: 1, 3: 2, 25: 2, 5: 3, 8: 9}","[3, 5, 8, 25, 37]",325389252371
Li2Mn3(BO3)3,mp-780102,0.0,1.9649998,0.04486565676471521,"{3: 2, 25: 3, 5: 3, 8: 9}","[3, 5, 8, 25]",325389253
RbLi2Fe2(BO3)3,mp-770709,1.8834000000000002,0.33543153,0.02459651598042001,"{37: 1, 3: 2, 26: 2, 5: 3, 8: 9}","[3, 5, 8, 26, 37]",325389262371
Li2Fe3(BO3)3,mp-759292,0.5566,2.45678072,0.3427727686764577,"{3: 2, 26: 3, 5: 3, 8: 9}","[3, 5, 8, 26]",325389263
RbLi2Co2(BO3)3,mp-770633,1.1508,0.18485975,0.07710588188997036,"{37: 1, 3: 2, 27: 2, 5: 3, 8: 9}","[3, 5, 8, 27, 37]",325389272371
RbLi2Ni2(BO3)3,mp-770719,0.6137,0.68088326,0.08064713646265442,"{37: 1, 3: 2, 28: 2, 5: 3, 8: 9}","[3, 5, 8, 28, 37]",325389282371
Li2Ni3(BO3)3,mp-1177892,0.0,1.53326219,0.10267231411763422,"{3: 2, 28: 3, 5: 3, 8: 9}","[3, 5, 8, 28]",325389283
RbLi2Ga2(BO3)3,mp-16872,3.3885,0.29663869,0.004173050424836511,"{37: 1, 3: 2, 31: 2, 5: 3, 8: 9}","[3, 5, 8, 31, 37]",325389312371
RbLi2B3Sb2O9,mp-769329,2.2754999999999996,2.35405247,0.0934876223529395,"{37: 1, 3: 2, 5: 3, 51: 2, 8: 9}","[3, 5, 8, 37, 51]",325389371512
Li2CuB4(PbO5)2,mp-1202669,0.9895,2.67553206,0.00747321988723737,"{3: 2, 29: 1, 5: 4, 82: 2, 8: 10}","[3, 5, 8, 29, 82]",3254810291822
Li2Mn3(BO3)4,mp-766516,0.49759999999999993,0.63572961,0.09666320312188237,"{3: 2, 25: 3, 5: 4, 8: 12}","[3, 5, 8, 25]",3254812253
Li2B4O7,mp-4779,5.668,0.66836281,0.002735776057693151,"{3: 2, 5: 4, 8: 7}","[3, 5, 8]",325487
Li2Al(BO2)5,mp-557177,5.6317,-0.07480131,0.0,"{3: 2, 13: 1, 5: 5, 8: 10}","[3, 5, 8, 13]",3255810131
Li2V(BO2)5,mp-772429,2.5921,0.63153339,0.04079260229165982,"{3: 2, 23: 1, 5: 5, 8: 10}","[3, 5, 8, 23]",3255810231
Li2Cr(BO2)5,mp-772433,1.9858000000000002,0.34416691,0.07916740101850372,"{3: 2, 24: 1, 5: 5, 8: 10}","[3, 5, 8, 24]",3255810241
Li2Mn(BO2)5,mp-772440,0.9682,-0.12828487,0.05209484133584752,"{3: 2, 25: 1, 5: 5, 8: 10}","[3, 5, 8, 25]",3255810251
Li2Fe(BO2)5,mp-770764,3.0402,-0.35545021,0.01953540263889142,"{3: 2, 26: 1, 5: 5, 8: 10}","[3, 5, 8, 26]",3255810261
Li2B5SbO10,mp-769374,3.3989999999999996,1.83630439,0.053245050972215324,"{3: 2, 5: 5, 51: 1, 8: 10}","[3, 5, 8, 51]",3255810511
Li2Bi(BO2)5,mp-768756,3.3903999999999996,0.69778326,0.052698494930563555,"{3: 2, 83: 1, 5: 5, 8: 10}","[3, 5, 8, 83]",3255810831
CsLi2Gd4(BO3)5,mp-1197930,2.5666,1.30401681,0.0,"{55: 1, 3: 2, 64: 4, 5: 5, 8: 15}","[3, 5, 8, 55, 64]",3255815551644
K3Ba3Li2Al4B6O20F,mp-1195057,4.1017,4.59556733,0.0,"{19: 3, 56: 3, 3: 2, 13: 4, 5: 6, 8: 20, 9: 1}","[3, 5, 8, 9, 13, 19, 56]",325682091134193563
Li2B6O9F2,mp-1200209,6.2705,-1.04078464,0.0,"{3: 2, 5: 6, 8: 9, 9: 2}","[3, 5, 8, 9]",32568992
Li2B8SeO15,mp-1198324,4.8776,4.3855484,0.0,"{3: 2, 5: 8, 34: 1, 8: 15}","[3, 5, 8, 34]",3258815341
Li26(B24O)3,mp-685675,0.0,2.05190571,0.08830633137471189,"{3: 26, 5: 72, 8: 3}","[3, 5, 8]",32657283
Li3B,mp-1185180,0.0,1.02412159,0.4563498458333335,"{3: 3, 5: 1}","[3, 5]",3351
Li3BS3,mp-5614,3.0495,0.90904378,0.0,"{3: 3, 5: 1, 16: 3}","[3, 5, 16]",3351163
Li3B11O18,mp-1020014,5.5447,-0.35782223,0.0,"{3: 3, 5: 11, 8: 18}","[3, 5, 8]",33511818
Li3BN2,mp-5001,3.2057999999999995,1.02868686,0.0,"{3: 3, 5: 1, 7: 2}","[3, 5, 7]",335172
K2Li3B(P2O7)2,mp-1019778,5.5903,0.47693747,0.0,"{19: 2, 3: 3, 5: 1, 15: 4, 8: 14}","[3, 5, 8, 15, 19]",3351814154192
Rb2Li3B(P2O7)2,mp-1020705,5.5484,0.45115031,0.0,"{37: 2, 3: 3, 5: 1, 15: 4, 8: 14}","[3, 5, 8, 15, 37]",3351814154372
Li3BO3,mp-27275,5.1473,0.24049652,0.0,"{3: 3, 5: 1, 8: 3}","[3, 5, 8]",335183
Li3FeBO4,mp-778748,3.0694000000000004,2.08345307,0.07577918388888705,"{3: 3, 26: 1, 5: 1, 8: 4}","[3, 5, 8, 26]",335184261
Li3CoBO4,mp-768705,1.7308000000000003,2.29654599,0.14458802784721936,"{3: 3, 27: 1, 5: 1, 8: 4}","[3, 5, 8, 27]",335184271
Li3VBO5,mp-768849,1.5281999999999996,2.36352903,0.1001864289999963,"{3: 3, 23: 1, 5: 1, 8: 5}","[3, 5, 8, 23]",335185231
Li3CrBO5,mp-768521,1.5616000000000003,1.90034353,0.10483567047222575,"{3: 3, 24: 1, 5: 1, 8: 5}","[3, 5, 8, 24]",335185241
Li3FeBO5,mp-771078,0.46430000000000005,1.0470035,0.10284184100000271,"{3: 3, 26: 1, 5: 1, 8: 5}","[3, 5, 8, 26]",335185261
Li3VSiBO7,mp-771263,1.5995,1.89842004,0.07594716442307181,"{3: 3, 23: 1, 14: 1, 5: 1, 8: 7}","[3, 5, 8, 14, 23]",335187141231
Li3CrSiBO7,mp-773206,0.6769000000000001,1.19462328,0.08612341074787189,"{3: 3, 24: 1, 14: 1, 5: 1, 8: 7}","[3, 5, 8, 14, 24]",335187141241
Li3MnSiBO7,mp-755970,1.2309,1.04897163,0.06295138803845024,"{3: 3, 25: 1, 14: 1, 5: 1, 8: 7}","[3, 5, 8, 14, 25]",335187141251
Li3FeSiBO7,mp-771289,0.0,1.0119708,0.08348720910256535,"{3: 3, 26: 1, 14: 1, 5: 1, 8: 7}","[3, 5, 8, 14, 26]",335187141261
Li3CoSiBO7,mp-771167,0.02519999999999989,1.93982186,0.0915818034695528,"{3: 3, 27: 1, 14: 1, 5: 1, 8: 7}","[3, 5, 8, 14, 27]",335187141271
Li3SiSnBO7,mp-770756,3.2406999999999995,1.77333151,0.06410464903846336,"{3: 3, 14: 1, 50: 1, 5: 1, 8: 7}","[3, 5, 8, 14, 50]",335187141501
Li3SiBiBO7,mp-771028,0.0,2.05535233,0.10178577519231347,"{3: 3, 14: 1, 83: 1, 5: 1, 8: 7}","[3, 5, 8, 14, 83]",335187141831
Li3VBPO7,mp-768575,1.9571999999999998,1.89680164,0.08819071576921989,"{3: 3, 23: 1, 5: 1, 15: 1, 8: 7}","[3, 5, 8, 15, 23]",335187151231
Li3CrBPO7,mp-768576,3.1695999999999995,1.27832658,0.07654130846153695,"{3: 3, 24: 1, 5: 1, 15: 1, 8: 7}","[3, 5, 8, 15, 24]",335187151241
Li3MnBPO7,mp-757046,1.1598000000000002,1.78195842,0.08139038790465047,"{3: 3, 25: 1, 5: 1, 15: 1, 8: 7}","[3, 5, 8, 15, 25]",335187151251
Li3FeBPO7,mp-756319,2.3324,1.39708852,0.23472120662087992,"{3: 3, 26: 1, 5: 1, 15: 1, 8: 7}","[3, 5, 8, 15, 26]",335187151261
Li3CrBAsO7,mp-754292,2.627,1.03181151,0.08406786596153992,"{3: 3, 24: 1, 5: 1, 33: 1, 8: 7}","[3, 5, 8, 24, 33]",335187241331
Li3MnBAsO7,mp-771037,0.9886999999999999,1.62021029,0.09181322610348097,"{3: 3, 25: 1, 5: 1, 33: 1, 8: 7}","[3, 5, 8, 25, 33]",335187251331
Li3FeBAsO7,mp-771029,2.1952,1.14591806,0.0923926243956048,"{3: 3, 26: 1, 5: 1, 33: 1, 8: 7}","[3, 5, 8, 26, 33]",335187261331
Li3B(PO4)2,mp-1020022,6.1272,1.00923245,0.013199622142855638,"{3: 3, 5: 1, 15: 2, 8: 8}","[3, 5, 8, 15]",335188152
Li3V3(BO5)2,mp-770155,1.2932000000000001,2.60421717,0.049207531666662696,"{3: 3, 23: 3, 5: 2, 8: 10}","[3, 5, 8, 23]",3352810233
Li3Al(BO3)2,mp-6097,4.8248,0.92904307,0.021378956041662178,"{3: 3, 13: 1, 5: 2, 8: 6}","[3, 5, 8, 13]",335286131
Li3Sc(BO3)2,mp-557012,4.1608,0.90726512,0.0022469566666654117,"{3: 3, 21: 1, 5: 2, 8: 6}","[3, 5, 8, 21]",335286211
Li3Ti(BO3)2,mp-770194,0.1673,5.08112912,0.08733163046473802,"{3: 3, 22: 1, 5: 2, 8: 6}","[3, 5, 8, 22]",335286221
Li3V(BO3)2,mp-772628,2.1818,2.064131,0.03914621374999072,"{3: 3, 23: 1, 5: 2, 8: 6}","[3, 5, 8, 23]",335286231
Li3Cr(BO3)2,mp-760283,2.8884,1.60658311,0.04046060270833163,"{3: 3, 24: 1, 5: 2, 8: 6}","[3, 5, 8, 24]",335286241
Li3Mn(BO3)2,mp-770910,0.9808999999999999,1.49434215,0.024560782916666746,"{3: 3, 25: 1, 5: 2, 8: 6}","[3, 5, 8, 25]",335286251
Li3Fe(BO3)2,mp-770825,2.1825,1.06004952,0.013018377083326094,"{3: 3, 26: 1, 5: 2, 8: 6}","[3, 5, 8, 26]",335286261
Li3Co(BO3)2,mp-756335,1.1890999999999998,0.30767436,0.06287064208332716,"{3: 3, 27: 1, 5: 2, 8: 6}","[3, 5, 8, 27]",335286271
Li3Ni(BO3)2,mp-770786,0.0,1.70825519,0.049782941111116585,"{3: 3, 28: 1, 5: 2, 8: 6}","[3, 5, 8, 28]",335286281
Li3Ga(BO3)2,mp-556014,4.1682,0.13798197,0.022149876874998142,"{3: 3, 31: 1, 5: 2, 8: 6}","[3, 5, 8, 31]",335286311
Li3In(BO3)2,mp-556799,3.6903999999999995,1.7821094,0.009382464062500873,"{3: 3, 49: 1, 5: 2, 8: 6}","[3, 5, 8, 49]",335286491
Li3Sn(BO3)2,mp-770286,1.5029,2.0401865,0.07137251697916636,"{3: 3, 50: 1, 5: 2, 8: 6}","[3, 5, 8, 50]",335286501
Li3B2SbO6,mp-770402,2.7455,1.41543199,0.059398175000001,"{3: 3, 5: 2, 51: 1, 8: 6}","[3, 5, 8, 51]",335286511
Li3Gd(BO3)2,mp-559706,2.9198,3.68852379,0.0,"{3: 3, 64: 1, 5: 2, 8: 6}","[3, 5, 8, 64]",335286641
Li3Bi(BO3)2,mp-768820,3.2169,1.74266573,0.0,"{3: 3, 83: 1, 5: 2, 8: 6}","[3, 5, 8, 83]",335286831
Li3Fe2(BO4)2,mp-759625,0.0,-0.48659777,0.11372061626666685,"{3: 3, 26: 2, 5: 2, 8: 8}","[3, 5, 8, 26]",335288262
Cs2Sr2Li3B3(PO4)6,mp-1019609,5.6029,0.89373506,0.0,"{55: 2, 38: 2, 3: 3, 5: 3, 15: 6, 8: 24}","[3, 5, 8, 15, 38, 55]",3353824156382552
Cs2Li3B3P6(PbO12)2,mp-1196318,5.0959,1.77440524,0.0,"{55: 2, 3: 3, 5: 3, 15: 6, 82: 2, 8: 24}","[3, 5, 8, 15, 55, 82]",3353824156552822
Li3CuB3O7,mp-1194301,0.4353999999999998,1.73147902,0.045933832321432,"{3: 3, 29: 1, 5: 3, 8: 7}","[3, 5, 8, 29]",335387291
Li3MnFe2(BO3)3,mp-755332,2.7735000000000003,1.95760413,0.0044751565277749705,"{3: 3, 25: 1, 26: 2, 5: 3, 8: 9}","[3, 5, 8, 25, 26]",335389251262
Li3Mn2Fe(BO3)3,mp-754791,2.9760999999999997,1.79197495,0.0026960127777719833,"{3: 3, 25: 2, 26: 1, 5: 3, 8: 9}","[3, 5, 8, 25, 26]",335389252261
Li3Y2(BO3)3,mp-1211286,4.7924,1.99800286,0.03911118132352964,"{3: 3, 39: 2, 5: 3, 8: 9}","[3, 5, 8, 39]",335389392
Li3La2(BO3)3,mp-1211607,4.504899999999999,3.13087227,0.0031659916176476344,"{3: 3, 57: 2, 5: 3, 8: 9}","[3, 5, 8, 57]",335389572
Li3Ce2(BO3)3,mp-1211185,0.2344999999999997,6.37632678,0.03199409131535713,"{3: 3, 58: 2, 5: 3, 8: 9}","[3, 5, 8, 58]",335389582
Li3Pr2(BO3)3,mp-13772,4.486,1.91002415,0.0,"{3: 3, 59: 2, 5: 3, 8: 9}","[3, 5, 8, 59]",335389592
Li3Nd2(BO3)3,mp-15362,4.4838000000000005,1.76566857,0.005263666764705022,"{3: 3, 60: 2, 5: 3, 8: 9}","[3, 5, 8, 60]",335389602
Li3Sm2(BO3)3,mp-1211228,4.832000000000001,1.7747915,0.012104743161757803,"{3: 3, 62: 2, 5: 3, 8: 9}","[3, 5, 8, 62]",335389622
Li3Eu2(BO3)3,mp-1098016,0.03270000000000001,0.11082761,0.2640541980882354,"{3: 3, 63: 2, 5: 3, 8: 9}","[3, 5, 8, 63]",335389632
Li3Bi2(BO3)3,mp-768798,3.2060000000000004,2.87971745,0.04771272602941945,"{3: 3, 83: 2, 5: 3, 8: 9}","[3, 5, 8, 83]",335389832
Li3Mn2Fe(BO3)4,mp-766489,1.1051,1.14782458,0.07670203090908245,"{3: 3, 25: 2, 26: 1, 5: 4, 8: 12}","[3, 5, 8, 25, 26]",3354812252261
Li3Mn3(BO3)4,mp-766488,0.4958,1.25168637,0.09528249879261441,"{3: 3, 25: 3, 5: 4, 8: 12}","[3, 5, 8, 25]",3354812253
Li3Mn4(BO3)4,mp-776994,0.20970000000000022,1.98063808,0.03676547721015133,"{3: 3, 25: 4, 5: 4, 8: 12}","[3, 5, 8, 25]",3354812254
Li3Fe3(BO3)4,mp-766497,1.3764999999999998,0.96227017,0.09588789991476165,"{3: 3, 26: 3, 5: 4, 8: 12}","[3, 5, 8, 26]",3354812263
Li3Fe4(BO3)4,mp-764459,1.6637,1.8953235,0.031036941195623946,"{3: 3, 26: 4, 5: 4, 8: 12}","[3, 5, 8, 26]",3354812264
Li3Co4(BO3)4,mp-768439,0.22420000000000018,1.87843518,0.17859550913041122,"{3: 3, 27: 4, 5: 4, 8: 12}","[3, 5, 8, 27]",3354812274
Li3VB4O9,mp-768885,2.7324,1.95207633,0.06437003661763807,"{3: 3, 23: 1, 5: 4, 8: 9}","[3, 5, 8, 23]",335489231
Li3CrB4O9,mp-752710,1.7649000000000001,1.56655513,0.09840133488970704,"{3: 3, 24: 1, 5: 4, 8: 9}","[3, 5, 8, 24]",335489241
Li3MnB4O9,mp-768410,0.4887999999999999,1.20403387,0.07793494597428019,"{3: 3, 25: 1, 5: 4, 8: 9}","[3, 5, 8, 25]",335489251
Li3FeB4O9,mp-752621,2.7008,0.81807214,0.04161874959559064,"{3: 3, 26: 1, 5: 4, 8: 9}","[3, 5, 8, 26]",335489261
Li3BiB4O9,mp-768715,3.6483,1.65125194,0.060758965441183754,"{3: 3, 83: 1, 5: 4, 8: 9}","[3, 5, 8, 83]",335489831
Li3V(BO2)5,mp-770344,2.4248,5.35859814,0.06888383669955722,"{3: 3, 23: 1, 5: 5, 8: 10}","[3, 5, 8, 23]",3355810231
Li3Mn(BO2)5,mp-768488,3.781,5.05512859,0.051195551657894356,"{3: 3, 25: 1, 5: 5, 8: 10}","[3, 5, 8, 25]",3355810251
Li3Fe(BO2)5,mp-752566,3.645,5.23774142,0.05450903779606264,"{3: 3, 26: 1, 5: 5, 8: 10}","[3, 5, 8, 26]",3355810261
Li3Co(BO2)5,mp-768669,3.0380000000000003,1.09660562,0.11728547982455861,"{3: 3, 27: 1, 5: 5, 8: 10}","[3, 5, 8, 27]",3355810271
Li3Ni(BO2)5,mp-771081,3.8409999999999997,5.0269243,0.06671305151315554,"{3: 3, 28: 1, 5: 5, 8: 10}","[3, 5, 8, 28]",3355810281
Li3Sn(BO2)5,mp-768284,3.761,1.21862061,0.058434397302624674,"{3: 3, 50: 1, 5: 5, 8: 10}","[3, 5, 8, 50]",3355810501
Cs2Li3(BO2)5,mp-966802,4.5354,-0.16478163,0.006559990763888912,"{55: 2, 3: 3, 5: 5, 8: 10}","[3, 5, 8, 55]",3355810552
BaNaLi3(BO2)6,mp-1019555,5.2185,0.60497691,0.0,"{56: 1, 11: 1, 3: 3, 5: 6, 8: 12}","[3, 5, 8, 11, 56]",3356812111561
Li3MnB6O13,mp-779068,1.9312,0.94686226,0.08883289625646729,"{3: 3, 25: 1, 5: 6, 8: 13}","[3, 5, 8, 25]",3356813251
Li3B7O12,mp-16828,5.6047,0.26899749,0.0,"{3: 3, 5: 7, 8: 12}","[3, 5, 8]",3357812
K9Li3Nd3(BO3)7,mp-1195894,3.7614,4.26011774,0.0,"{19: 9, 3: 3, 60: 3, 5: 7, 8: 21}","[3, 5, 8, 19, 60]",3357821199603
Li3B8O15,mp-1203033,0.02279999999999993,-0.71657612,0.12478749822113233,"{3: 3, 5: 8, 8: 15}","[3, 5, 8]",3358815
Li3MnB8O15,mp-777353,1.3799000000000001,-0.45412639,0.08271944482446614,"{3: 3, 25: 1, 5: 8, 8: 15}","[3, 5, 8, 25]",3358815251
Li3FeB8O15,mp-776601,3.1956999999999995,-0.75682279,0.06372914981480893,"{3: 3, 26: 1, 5: 8, 8: 15}","[3, 5, 8, 26]",3358815261
Li3BiB8O15,mp-777730,4.0047999999999995,-0.02114091,0.0666173227777831,"{3: 3, 83: 1, 5: 8, 8: 15}","[3, 5, 8, 83]",3358815831
Li3Fe8(BO3)8,mp-849619,1.3940000000000001,2.87125962,0.0664508888590074,"{3: 3, 26: 8, 5: 8, 8: 24}","[3, 5, 8, 26]",3358824268
Li4B2O5,mp-768884,4.971,0.48342417,0.0464252879545457,"{3: 4, 5: 2, 8: 5}","[3, 5, 8]",345285
Li4Ca(BO3)2,mp-557467,4.7254,0.56635257,0.0,"{3: 4, 20: 1, 5: 2, 8: 6}","[3, 5, 8, 20]",345286201
Li4V(BO3)2,mp-777961,2.7351,2.6862271,0.0,"{3: 4, 23: 1, 5: 2, 8: 6}","[3, 5, 8, 23]",345286231
Li4Mn(BO3)2,mp-754416,3.5788,1.25192927,0.01156049769230627,"{3: 4, 25: 1, 5: 2, 8: 6}","[3, 5, 8, 25]",345286251
Li4Fe(BO3)2,mp-1650315,3.9646999999999997,4.91466579,0.01612848288461599,"{3: 4, 26: 1, 5: 2, 8: 6}","[3, 5, 8, 26]",345286261
Li4Co(BO3)2,mp-1177472,3.0153999999999996,0.72970253,0.09938919153846282,"{3: 4, 27: 1, 5: 2, 8: 6}","[3, 5, 8, 27]",345286271
Li4Ni(BO3)2,mp-775949,3.0071,1.04380103,0.04423935961538561,"{3: 4, 28: 1, 5: 2, 8: 6}","[3, 5, 8, 28]",345286281
Li4Sn(BO3)2,mp-756045,2.5107999999999997,2.57552668,0.07982157749999974,"{3: 4, 50: 1, 5: 2, 8: 6}","[3, 5, 8, 50]",345286501
Li4MnFe2(BO3)4,mp-766479,1.6559000000000001,1.3524161,0.07393242260868504,"{3: 4, 25: 1, 26: 2, 5: 4, 8: 12}","[3, 5, 8, 25, 26]",3454812251262
Li4MnFe3(BO3)4,mp-1177332,3.2617,4.97011528,0.00202499781249621,"{3: 4, 25: 1, 26: 3, 5: 4, 8: 12}","[3, 5, 8, 25, 26]",3454812251263
Li4Mn2Fe(BO3)4,mp-766490,1.3266,1.66636988,0.07993692326085444,"{3: 4, 25: 2, 26: 1, 5: 4, 8: 12}","[3, 5, 8, 25, 26]",3454812252261
Li4Mn3(BO3)4,mp-766499,0.4946999999999999,1.91133504,0.06791926673912663,"{3: 4, 25: 3, 5: 4, 8: 12}","[3, 5, 8, 25]",3454812253
Li4Mn3Fe(BO3)4,mp-755967,3.0413000000000006,1.88934381,0.0057885513541586775,"{3: 4, 25: 3, 26: 1, 5: 4, 8: 12}","[3, 5, 8, 25, 26]",3454812253261
Li4Fe3(BO3)4,mp-766514,1.6564999999999999,1.44060875,0.05552345804348224,"{3: 4, 26: 3, 5: 4, 8: 12}","[3, 5, 8, 26]",3454812263
Li4B4Sb2SO16,mp-768968,2.561,1.22443402,0.09418051811727235,"{3: 4, 5: 4, 51: 2, 16: 1, 8: 16}","[3, 5, 8, 16, 51]",3454816161512
Li4Mg23B54,mp-530613,0.0,5.47763572,0.04014986394200726,"{3: 4, 12: 23, 5: 54}","[3, 5, 12]",345541223
CsLi4(BO2)5,mp-1019716,4.4885,-0.65367039,0.0027444496944450947,"{55: 1, 3: 4, 5: 5, 8: 10}","[3, 5, 8, 55]",3455810551
Li4B7ClO12,mp-1222565,5.8739,0.43561653,0.005676340208313313,"{3: 4, 5: 7, 17: 1, 8: 12}","[3, 5, 8, 17]",3457812171