formula,material_id,band_gap,efermi,energy_above_hull,comp_atoms,sorted_keys_comp_atoms,comp_number
KSrB5O9,mp-556250,5.1442000000000005,0.30215102,0.0,"{19: 1, 38: 1, 5: 5, 8: 9}","[5, 8, 19, 38]",5589191381
KBaB5O9,mp-557420,4.8693,0.22717837,0.0,"{19: 1, 56: 1, 5: 5, 8: 9}","[5, 8, 19, 56]",5589191561
Ca2B5BrO9,mp-554056,5.2036,0.98508418,0.0,"{20: 2, 5: 5, 35: 1, 8: 9}","[5, 8, 20, 35]",5589202351
Sr2B5BrO9,mp-1209005,5.164300000000001,0.7184729,0.0,"{38: 2, 5: 5, 35: 1, 8: 9}","[5, 8, 35, 38]",5589351382
Ba2B5BrO9,mp-1214841,5.3458,5.89487908,0.0,"{56: 2, 5: 5, 35: 1, 8: 9}","[5, 8, 35, 56]",5589351562
Eu2B5BrO9,mp-558834,0.8801000000000005,5.69917516,0.0,"{63: 2, 5: 5, 35: 1, 8: 9}","[5, 8, 35, 63]",5589351632
B5Pb2BrO9,mp-23623,3.4053000000000004,2.09584324,0.0,"{5: 5, 82: 2, 35: 1, 8: 9}","[5, 8, 35, 82]",5589351822
YB5O9,mp-768961,4.97,1.78629632,0.0004887056111186894,"{39: 1, 5: 5, 8: 9}","[5, 8, 39]",5589391
Ag3B5O9,mp-1194638,1.8021,1.78947046,0.007357592022056991,"{47: 3, 5: 5, 8: 9}","[5, 8, 47]",5589473
B5Pb2IO9,mp-1200548,3.3111,2.8538655,0.0,"{5: 5, 82: 2, 53: 1, 8: 9}","[5, 8, 53, 82]",5589531822
LaB5O9,mp-30926,4.4878,2.4835074,0.0,"{57: 1, 5: 5, 8: 9}","[5, 8, 57]",5589571
B5F6,mp-30936,3.2984999999999998,-2.34113652,0.16890393159090777,"{5: 5, 9: 6}","[5, 9]",5596
Mg3(Ni10B3)2,mp-10117,0.0,7.5560044,0.0,"{12: 3, 28: 20, 5: 6}","[5, 12, 28]",561232820
Nb2AlB6,mp-1220697,0.0,8.61917773,0.010791776485259419,"{41: 2, 13: 1, 5: 6}","[5, 13, 41]",56131412
Al20(CoB2)3,mp-1214905,0.0,8.69764327,0.3010312455448281,"{13: 20, 27: 3, 5: 6}","[5, 13, 27]",561320273
Al2(Ni7B2)3,mp-1214897,0.0,8.38685331,0.0,"{13: 2, 28: 21, 5: 6}","[5, 13, 28]",561322821
Al3(Co10B3)2,mp-505537,0.0,6.46696919,0.0057081436206889435,"{13: 3, 27: 20, 5: 6}","[5, 13, 27]",561332720
Al3(Ni10B3)2,mp-505472,0.0,8.49856361,0.0,"{13: 3, 28: 20, 5: 6}","[5, 13, 28]",561332820
SiB6,mp-7700,0.04659999999999975,5.36431754,0.478924079642856,"{14: 1, 5: 6}","[5, 14]",56141
B6P,mp-28395,2.4757,5.21319273,0.0,"{5: 6, 15: 1}","[5, 15]",56151
Ag(BCl)6,mp-567334,2.6955,0.47279786,0.0,"{47: 1, 5: 6, 17: 6}","[5, 17, 47]",56176471
Cs(BCl)6,mp-570530,3.2599,-0.482149,0.0,"{55: 1, 5: 6, 17: 6}","[5, 17, 55]",56176551
KB6,mp-1076,0.0,2.94515987,0.0,"{19: 1, 5: 6}","[5, 19]",56191
CaB6,mp-865,0.0,4.7383542,0.0,"{20: 1, 5: 6}","[5, 20]",56201
Ca(Ni2B)6,mp-21312,0.0,7.56716303,0.0,"{20: 1, 28: 12, 5: 6}","[5, 20, 28]",562012812
Ca2(Ni7B2)3,mp-1193221,0.0,7.38726393,0.027331254482758638,"{20: 2, 28: 21, 5: 6}","[5, 20, 28]",562022821
Ca3(B3Rh4)2,mp-569257,0.0,5.88904631,0.0,"{20: 3, 5: 6, 45: 8}","[5, 20, 45]",56203458
Sc2CrB6,mp-510306,0.0,6.54052753,0.0,"{21: 2, 24: 1, 5: 6}","[5, 21, 24]",56212241
Sc2(Co7B2)3,mp-1193429,0.0,5.78129458,0.030883369999995303,"{21: 2, 27: 21, 5: 6}","[5, 21, 27]",562122721
Sc2(Ni7B2)3,mp-647205,0.0,7.78777406,0.0,"{21: 2, 28: 21, 5: 6}","[5, 21, 28]",562122821
Sc2B6Rh,mp-569116,0.0,7.23084881,0.0,"{21: 2, 5: 6, 45: 1}","[5, 21, 45]",56212451
Sc2ReB6,mp-1196116,0.0,6.71452162,0.0,"{21: 2, 75: 1, 5: 6}","[5, 21, 75]",56212751
Sc2B6Ir,mp-1209019,0.0,7.92947457,0.0,"{21: 2, 5: 6, 77: 1}","[5, 21, 77]",56212771
Sc3(Ni10B3)2,mp-1194311,0.0,7.74791903,0.0,"{21: 3, 28: 20, 5: 6}","[5, 21, 28]",562132820
K11B62,mp-685078,0.0,2.38002226,0.1613438944474881,"{19: 11, 5: 62}","[5, 19]",5621911
Ti20(CoB2)3,mp-1208329,0.0,5.73278525,0.22245758468390697,"{22: 20, 27: 3, 5: 6}","[5, 22, 27]",562220273
Ti2FeB6(Os2Rh)3,mp-1217275,0.0,8.1460344,0.2566337694290084,"{22: 2, 26: 1, 5: 6, 76: 6, 45: 3}","[5, 22, 26, 45, 76]",56222261453766
Ti2(Co7B2)3,mp-1193707,0.0,6.06723505,0.0,"{22: 2, 27: 21, 5: 6}","[5, 22, 27]",562222721
Ti2(Ni7B2)3,mp-1193180,0.0,8.19615496,0.0,"{22: 2, 28: 21, 5: 6}","[5, 22, 28]",562222821
Ti3(Co10B3)2,mp-1193476,0.0,6.11951319,0.0024834134482709658,"{22: 3, 27: 20, 5: 6}","[5, 22, 27]",562232720
Ti3(Ni10B3)2,mp-1193912,0.0,8.39794219,0.0,"{22: 3, 28: 20, 5: 6}","[5, 22, 28]",562232820
V2(Co7B2)3,mp-1193908,0.0,6.10456606,0.0,"{23: 2, 27: 21, 5: 6}","[5, 23, 27]",562322721
V2(Ni7B2)3,mp-1207902,0.0,8.21397819,0.004256709310341833,"{23: 2, 28: 21, 5: 6}","[5, 23, 28]",562322821
V3(Co10B3)2,mp-1193521,0.0,6.18974731,0.0022867874137881827,"{23: 3, 27: 20, 5: 6}","[5, 23, 27]",562332720
V3(Ni10B3)2,mp-1192799,0.0,8.35541665,0.0,"{23: 3, 28: 20, 5: 6}","[5, 23, 28]",562332820
V5B6,mp-1206441,0.0,7.90459362,0.0,"{23: 5, 5: 6}","[5, 23]",56235
CrRe13B6,mp-1226393,0.0,8.16041779,0.011036494024992294,"{24: 1, 75: 13, 5: 6}","[5, 24, 75]",562417513
Cr2(Co7B2)3,mp-542727,0.0,6.1069764,0.014164327931034393,"{24: 2, 27: 21, 5: 6}","[5, 24, 27]",562422721
Cr2(NiB2)3,mp-1226092,0.0,8.96772735,0.026828243011363995,"{24: 2, 28: 3, 5: 6}","[5, 24, 28]",56242283
Ce(CrB3)2,mp-2873,0.0,8.56549502,0.0,"{58: 1, 24: 2, 5: 6}","[5, 24, 58]",56242581
Pr(CrB3)2,mp-1095025,0.0,7.21921634,0.02004406194444286,"{59: 1, 24: 2, 5: 6}","[5, 24, 59]",56242591
Nd(CrB3)2,mp-1078775,0.0,7.17034452,0.01504195888889015,"{60: 1, 24: 2, 5: 6}","[5, 24, 60]",56242601
Sm(CrB3)2,mp-1079198,0.0,6.99882393,0.01813915694444468,"{62: 1, 24: 2, 5: 6}","[5, 24, 62]",56242621
Th(CrB3)2,mp-9357,0.0,8.48037446,0.0,"{90: 1, 24: 2, 5: 6}","[5, 24, 90]",56242901
Cr3NiB6,mp-1226349,0.0,8.93845694,0.04149630243750124,"{24: 3, 28: 1, 5: 6}","[5, 24, 28]",56243281
Cr9FeB6,mp-1226337,0.0,7.85572454,0.007152716171875184,"{24: 9, 26: 1, 5: 6}","[5, 24, 26]",56249261
MnCo21B6Mo,mp-1221854,0.0,6.26930085,0.029583481120691424,"{25: 1, 27: 21, 5: 6, 42: 1}","[5, 25, 27, 42]",562512721421
Mn2(Co7B2)3,mp-1194187,0.0,6.0384727,0.031236725344829352,"{25: 2, 27: 21, 5: 6}","[5, 25, 27]",562522721
Mn2(Ni7B2)3,mp-1193061,0.0,8.10314255,0.08072694840516981,"{25: 2, 28: 21, 5: 6}","[5, 25, 28]",562522821
Nd5(MnB3)2,mp-1104018,0.0,4.79054925,0.011944154423080278,"{60: 5, 25: 2, 5: 6}","[5, 25, 60]",56252605
Mn3(Co10B3)2,mp-1193450,0.0,6.19272627,0.04782074094827582,"{25: 3, 27: 20, 5: 6}","[5, 25, 27]",562532720
Mn3(Ni10B3)2,mp-1194237,0.0,8.03749073,0.09662836466953983,"{25: 3, 28: 20, 5: 6}","[5, 25, 28]",562532820
La(Fe2B)6,mp-1188975,0.0,6.69364963,0.016726601842105282,"{57: 1, 26: 12, 5: 6}","[5, 26, 57]",562612571
Nd(Fe2B)6,mp-641957,0.0,5.88939194,0.02278985184211546,"{60: 1, 26: 12, 5: 6}","[5, 26, 60]",562612601
Lu2FeB6,mp-505545,0.0,6.04391493,0.0,"{71: 2, 26: 1, 5: 6}","[5, 26, 71]",56261712
Nb3(Fe10B3)2,mp-21666,0.0,6.02365596,0.0025725822413775745,"{41: 3, 26: 20, 5: 6}","[5, 26, 41]",562620413
Nd2(Fe7B2)3,mp-1210236,0.0,5.73454823,0.10333084237068935,"{60: 2, 26: 21, 5: 6}","[5, 26, 60]",562621602
U2(Fe7B2)3,mp-1208129,0.0,7.31812615,0.00510327241379116,"{92: 2, 26: 21, 5: 6}","[5, 26, 92]",562621922
Fe22B6W,mp-1224794,0.0,5.97305083,0.007773572931034423,"{26: 22, 5: 6, 74: 1}","[5, 26, 74]",562622741
Fe23B6,mp-542758,0.0,5.57063563,0.021567803793102414,"{26: 23, 5: 6}","[5, 26]",562623
Ce5(FeB3)2,mp-1105171,0.0,8.47299736,0.0,"{58: 5, 26: 2, 5: 6}","[5, 26, 58]",56262585
Nd5(FeB3)2,mp-8793,0.0,4.7698549,0.0,"{60: 5, 26: 2, 5: 6}","[5, 26, 60]",56262605
U(FeB3)2,mp-1087505,0.0,9.85442209,0.0,"{92: 1, 26: 2, 5: 6}","[5, 26, 92]",56262921
Fe3(Ni10B3)2,mp-1193589,0.0,7.73009511,0.029960702931033367,"{26: 3, 28: 20, 5: 6}","[5, 26, 28]",562632820
Y4(FeB2)3,mp-1104580,0.0,4.79481406,0.07801060211538413,"{39: 4, 26: 3, 5: 6}","[5, 26, 39]",56263394
Ce4(FeB2)3,mp-1104452,0.0,8.39800874,0.05313010637362314,"{58: 4, 26: 3, 5: 6}","[5, 26, 58]",56263584
Pr4(FeB2)3,mp-1104305,0.0,5.14040784,0.10937179341025605,"{59: 4, 26: 3, 5: 6}","[5, 26, 59]",56263594
Nd4(FeB2)3,mp-1104491,0.0,5.12094863,0.10722991192307951,"{60: 4, 26: 3, 5: 6}","[5, 26, 60]",56263604
Sm4(FeB2)3,mp-1104274,0.0,4.91270349,0.04026467573076875,"{62: 4, 26: 3, 5: 6}","[5, 26, 62]",56263624
Tb4(FeB2)3,mp-1104685,0.0,4.87348338,0.06301788416666554,"{65: 4, 26: 3, 5: 6}","[5, 26, 65]",56263654
Dy4(FeB2)3,mp-1105065,0.0,4.90233711,0.12441000657051404,"{66: 4, 26: 3, 5: 6}","[5, 26, 66]",56263664
LaFe6(CoB)6,mp-1222963,0.0,6.60855646,0.05367166782985411,"{57: 1, 26: 6, 27: 6, 5: 6}","[5, 26, 27, 57]",56266276571
Y(Co2B)6,mp-1188251,0.0,5.87623236,0.0,"{39: 1, 27: 12, 5: 6}","[5, 27, 39]",562712391
La(Co2B)6,mp-1106274,0.0,6.67208231,0.0,"{57: 1, 27: 12, 5: 6}","[5, 27, 57]",562712571
Ce(Co2B)6,mp-1205398,0.0,6.55891739,0.0,"{58: 1, 27: 12, 5: 6}","[5, 27, 58]",562712581
Pr(Co2B)6,mp-1105562,0.0,5.91277561,0.0,"{59: 1, 27: 12, 5: 6}","[5, 27, 59]",562712591
Nd(Co2B)6,mp-1105815,0.0,5.88339343,0.0,"{60: 1, 27: 12, 5: 6}","[5, 27, 60]",562712601
Sm(Co2B)6,mp-1105798,0.0,5.80309152,0.0,"{62: 1, 27: 12, 5: 6}","[5, 27, 62]",562712621
Gd(Co2B)6,mp-645286,0.0,5.84753024,0.0,"{64: 1, 27: 12, 5: 6}","[5, 27, 64]",562712641
Tb(Co2B)6,mp-1188842,0.0,5.87596866,0.0,"{65: 1, 27: 12, 5: 6}","[5, 27, 65]",562712651
Dy(Co2B)6,mp-1106057,0.0,5.88654555,0.0,"{66: 1, 27: 12, 5: 6}","[5, 27, 66]",562712661
Ho(Co2B)6,mp-1105128,0.0,5.85251258,0.0,"{67: 1, 27: 12, 5: 6}","[5, 27, 67]",562712671
Er(Co2B)6,mp-1188589,0.0,5.83449218,0.0,"{68: 1, 27: 12, 5: 6}","[5, 27, 68]",562712681
Tm(Co2B)6,mp-1205300,0.0,5.83560829,0.0,"{69: 1, 27: 12, 5: 6}","[5, 27, 69]",562712691
Lu2CoB6,mp-505543,0.0,5.97168577,0.0006190608333307424,"{71: 2, 27: 1, 5: 6}","[5, 27, 71]",56271712
Pr5Co19B6,mp-542034,0.0,5.20313536,0.028798350909946535,"{59: 5, 27: 19, 5: 6}","[5, 27, 59]",562719595
Nd5Co19B6,mp-569415,0.0,5.25847972,0.020937042306199416,"{60: 5, 27: 19, 5: 6}","[5, 27, 60]",562719605
In3(Co10B3)2,mp-1193971,0.0,6.885312,0.056606319827587015,"{49: 3, 27: 20, 5: 6}","[5, 27, 49]",562720493
Ga2(Co7B2)3,mp-1194289,0.0,5.8615499,0.005157408793103002,"{31: 2, 27: 21, 5: 6}","[5, 27, 31]",562721312
Co21(GeB3)2,mp-1193515,0.0,6.32847819,0.01587558689655033,"{27: 21, 32: 2, 5: 6}","[5, 27, 32]",562721322
Zr2(Co7B2)3,mp-541854,0.0,5.79197215,0.013368399482759585,"{40: 2, 27: 21, 5: 6}","[5, 27, 40]",562721402
Nb2(Co7B2)3,mp-1192832,0.0,6.00323586,0.0,"{41: 2, 27: 21, 5: 6}","[5, 27, 41]",562721412
Co21(B3Mo)2,mp-542728,0.0,6.38962936,0.03009891275862131,"{27: 21, 5: 6, 42: 2}","[5, 27, 42]",562721422
In2(Co7B2)3,mp-1194164,0.0,6.59947488,0.02980477683908056,"{49: 2, 27: 21, 5: 6}","[5, 27, 49]",562721492
Co21(SnB3)2,mp-542739,0.0,6.75644931,0.01446574390804578,"{27: 21, 50: 2, 5: 6}","[5, 27, 50]",562721502
Co21(B3Sb)2,mp-505544,0.0,7.00090512,0.003955021206898834,"{27: 21, 5: 6, 51: 2}","[5, 27, 51]",562721512
Hf2(Co7B2)3,mp-1194066,0.0,5.90779699,0.005909421551725913,"{72: 2, 27: 21, 5: 6}","[5, 27, 72]",562721722
Ta2(Co7B2)3,mp-1193985,0.0,6.10580364,0.0,"{73: 2, 27: 21, 5: 6}","[5, 27, 73]",562721732
Co21(B3W)2,mp-672221,0.0,6.22923433,0.02268070758620766,"{27: 21, 5: 6, 74: 2}","[5, 27, 74]",562721742
Co21(ReB3)2,mp-541852,0.0,6.27362658,0.02931419396551682,"{27: 21, 75: 2, 5: 6}","[5, 27, 75]",562721752
U2(Co7B2)3,mp-541853,0.0,7.27318108,0.0,"{92: 2, 27: 21, 5: 6}","[5, 27, 92]",562721922
In(Co11B3)2,mp-1194097,0.0,6.32926621,0.06144986591954016,"{49: 1, 27: 22, 5: 6}","[5, 27, 49]",562722491
Co22B6Sb,mp-1194407,0.0,6.43827245,0.08142823362068974,"{27: 22, 5: 6, 51: 1}","[5, 27, 51]",562722511
Co23B6,mp-639154,0.0,5.86345795,0.03366596258620724,"{27: 23, 5: 6}","[5, 27]",562723
Pr5(CoB3)2,mp-7735,0.0,4.931632,0.003232367538461567,"{59: 5, 27: 2, 5: 6}","[5, 27, 59]",56272595
Dy5(CoB3)2,mp-1105042,0.0,4.66036464,0.0,"{66: 5, 27: 2, 5: 6}","[5, 27, 66]",56272665
Y4(CoB2)3,mp-1104597,0.0,4.87905093,0.18062233346154066,"{39: 4, 27: 3, 5: 6}","[5, 27, 39]",56273394
La4(CoB2)3,mp-1104122,0.0,8.60534653,0.1521638876923106,"{57: 4, 27: 3, 5: 6}","[5, 27, 57]",56273574
Ce4(CoB2)3,mp-1103972,0.0,8.39209152,0.08159897942307737,"{58: 4, 27: 3, 5: 6}","[5, 27, 58]",56273584
Pr4(CoB2)3,mp-1105066,0.0,5.18321292,0.19545120552564121,"{59: 4, 27: 3, 5: 6}","[5, 27, 59]",56273594
Sm4(CoB2)3,mp-1103681,0.0,4.99132986,0.17834353080769194,"{62: 4, 27: 3, 5: 6}","[5, 27, 62]",56273624
Dy4(CoB2)3,mp-1104444,0.0,4.82640789,0.1947137184615384,"{66: 4, 27: 3, 5: 6}","[5, 27, 66]",56273664
Ho4(CoB2)3,mp-1103959,0.0,4.79331688,0.17845426955128207,"{67: 4, 27: 3, 5: 6}","[5, 27, 67]",56273674
Er4(CoB2)3,mp-1105098,0.0,4.73712654,0.19043922750000242,"{68: 4, 27: 3, 5: 6}","[5, 27, 68]",56273684
Sr(Ni2B)6,mp-16830,0.0,7.44028876,0.0,"{38: 1, 28: 12, 5: 6}","[5, 28, 38]",562812381
Y(Ni2B)6,mp-1202784,0.0,7.5987725,0.0,"{39: 1, 28: 12, 5: 6}","[5, 28, 39]",562812391
Ba(Ni2B)6,mp-17236,0.0,7.3147391,0.0,"{56: 1, 28: 12, 5: 6}","[5, 28, 56]",562812561
La(Ni2B)6,mp-14325,0.0,8.35904883,0.0,"{57: 1, 28: 12, 5: 6}","[5, 28, 57]",562812571
Ce(Ni2B)6,mp-21695,0.0,8.27002449,0.0,"{58: 1, 28: 12, 5: 6}","[5, 28, 58]",562812581
Pr(Ni2B)6,mp-1201639,0.0,7.54137349,0.0,"{59: 1, 28: 12, 5: 6}","[5, 28, 59]",562812591
Nd(Ni2B)6,mp-1202698,0.0,7.48700459,0.0,"{60: 1, 28: 12, 5: 6}","[5, 28, 60]",562812601
Sm(Ni2B)6,mp-1205147,0.0,7.51901081,0.2319352767105336,"{62: 1, 28: 12, 5: 6}","[5, 28, 62]",562812621
Eu(Ni2B)6,mp-580731,0.0,7.60234543,0.0,"{63: 1, 28: 12, 5: 6}","[5, 28, 63]",562812631
Gd(Ni2B)6,mp-1204079,0.0,7.13242422,0.0,"{64: 1, 28: 12, 5: 6}","[5, 28, 64]",562812641
Tb(Ni2B)6,mp-10124,0.0,7.68242576,0.0,"{65: 1, 28: 12, 5: 6}","[5, 28, 65]",562812651
Dy(Ni2B)6,mp-1202380,0.0,7.56312276,0.0,"{66: 1, 28: 12, 5: 6}","[5, 28, 66]",562812661
Ho(Ni2B)6,mp-1212548,0.0,7.61287138,0.07669957131578986,"{67: 1, 28: 12, 5: 6}","[5, 28, 67]",562812671
Ho2(Ni5B2)3,mp-567285,0.0,7.65968235,0.18222658826086935,"{67: 2, 28: 15, 5: 6}","[5, 28, 67]",562815672
Lu5Ni19B6,mp-8531,0.0,6.82091094,0.01670645267328652,"{71: 5, 28: 19, 5: 6}","[5, 28, 71]",562819715
Zn3(Ni10B3)2,mp-10131,0.0,7.36844577,0.0,"{30: 3, 28: 20, 5: 6}","[5, 28, 30]",562820303
Ga3(Ni10B3)2,mp-977324,0.0,7.86162872,0.0,"{31: 3, 28: 20, 5: 6}","[5, 28, 31]",562820313
Zr3(Ni10B3)2,mp-1193952,0.0,7.73385296,0.0,"{40: 3, 28: 20, 5: 6}","[5, 28, 40]",562820403
Nb3(Ni10B3)2,mp-1210153,0.0,8.05791984,0.0,"{41: 3, 28: 20, 5: 6}","[5, 28, 41]",562820413
Ni20(SnB2)3,mp-29724,0.0,9.18373043,0.009313329949709015,"{28: 20, 50: 3, 5: 6}","[5, 28, 50]",562820503
Hf3(Ni10B3)2,mp-1193581,0.0,7.99443782,0.039822545459762715,"{72: 3, 28: 20, 5: 6}","[5, 28, 72]",562820723
Ta3(Ni10B3)2,mp-1194177,0.0,8.35409846,0.0,"{73: 3, 28: 20, 5: 6}","[5, 28, 73]",562820733
Ga2(Ni7B2)3,mp-1193255,0.0,7.92866485,0.0,"{31: 2, 28: 21, 5: 6}","[5, 28, 31]",562821312
Ni21(GeB3)2,mp-1209988,0.0,8.16658676,0.0,"{28: 21, 32: 2, 5: 6}","[5, 28, 32]",562821322
Zr2(Ni7B2)3,mp-5172,0.0,7.91207237,0.0,"{40: 2, 28: 21, 5: 6}","[5, 28, 40]",562821402
Nb2(Ni7B2)3,mp-1210179,0.0,8.09495709,0.0,"{41: 2, 28: 21, 5: 6}","[5, 28, 41]",562821412
In2(Ni7B2)3,mp-21551,0.0,8.55893408,0.0,"{49: 2, 28: 21, 5: 6}","[5, 28, 49]",562821492
Ni21(SnB3)2,mp-21573,0.0,8.86129026,0.0,"{28: 21, 50: 2, 5: 6}","[5, 28, 50]",562821502
Ni21(B3Sb)2,mp-10123,0.0,9.0158008,0.0,"{28: 21, 5: 6, 51: 2}","[5, 28, 51]",562821512
Ce2(Ni7B2)3,mp-541851,0.0,8.59520618,0.00454954998433621,"{58: 2, 28: 21, 5: 6}","[5, 28, 58]",562821582
Er2(Ni7B2)3,mp-1193830,0.0,7.61673418,0.003944033749992748,"{68: 2, 28: 21, 5: 6}","[5, 28, 68]",562821682
Tm2(Ni7B2)3,mp-21608,0.0,7.59311837,0.0,"{69: 2, 28: 21, 5: 6}","[5, 28, 69]",562821692
Lu2(Ni7B2)3,mp-1193129,0.0,7.45557226,0.0,"{71: 2, 28: 21, 5: 6}","[5, 28, 71]",562821712
Hf2(Ni7B2)3,mp-1194313,0.0,8.18513596,0.0,"{72: 2, 28: 21, 5: 6}","[5, 28, 72]",562821722
Ta2(Ni7B2)3,mp-1192512,0.0,8.29919716,0.0,"{73: 2, 28: 21, 5: 6}","[5, 28, 73]",562821732
U2(Ni7B2)3,mp-10130,0.0,9.20874926,0.0,"{92: 2, 28: 21, 5: 6}","[5, 28, 92]",562821922
In(Ni11B3)2,mp-1224500,0.0,8.42338221,0.0129119222413685,"{49: 1, 28: 22, 5: 6}","[5, 28, 49]",562822491
Ni23B6,mp-20962,0.0,7.98581129,0.025791950344828507,"{28: 23, 5: 6}","[5, 28]",562823
Tb2(NiB2)3,mp-1102097,0.0,6.53352439,0.00985271000002097,"{65: 2, 28: 3, 5: 6}","[5, 28, 65]",56283652
Dy2(NiB2)3,mp-1103438,0.0,6.61058512,0.002454742500010987,"{66: 2, 28: 3, 5: 6}","[5, 28, 66]",56283662
Ho2(NiB2)3,mp-1095435,0.0,6.43582723,0.11329343477982956,"{67: 2, 28: 3, 5: 6}","[5, 28, 67]",56283672
Er2(NiB2)3,mp-4071,0.0,6.50844046,0.0,"{68: 2, 28: 3, 5: 6}","[5, 28, 68]",56283682
Tm2(NiB2)3,mp-1102968,0.0,6.4729907,0.0,"{69: 2, 28: 3, 5: 6}","[5, 28, 69]",56283692
Lu2(NiB2)3,mp-8771,0.0,6.49671824,0.0,"{71: 2, 28: 3, 5: 6}","[5, 28, 71]",56283712
Ba2(Ni3B2)3,mp-29219,0.0,6.16413334,0.011178452205885314,"{56: 2, 28: 9, 5: 6}","[5, 28, 56]",56289562
Zn15B6Rh17,mp-1215838,0.0,5.29307043,0.0,"{30: 15, 5: 6, 45: 17}","[5, 30, 45]",5630154517
Zn6B6Ir11,mp-1178665,0.0,7.42773929,0.010263535667714763,"{30: 6, 5: 6, 77: 11}","[5, 30, 77]",563067711
B6As,mp-624,2.6454000000000004,4.53115495,0.0,"{5: 6, 33: 1}","[5, 33]",56331
Cs(BBr)6,mp-569897,2.5949,-0.59579597,0.0,"{55: 1, 5: 6, 35: 6}","[5, 35, 55]",56356551
SrB6,mp-242,0.0,4.4717256,0.0,"{38: 1, 5: 6}","[5, 38]",56381
Sr3(B3Rh4)2,mp-568771,0.0,5.74146794,0.0,"{38: 3, 5: 6, 45: 8}","[5, 38, 45]",56383458
YB6,mp-2203,0.0,6.97783119,0.011403886160714194,"{39: 1, 5: 6}","[5, 39]",56391
Y2B6Ru,mp-1196778,0.0,6.5535109,0.0,"{39: 2, 5: 6, 44: 1}","[5, 39, 44]",56392441
Y2(B2Rh3)3,mp-1216181,0.0,5.89577112,0.0,"{39: 2, 5: 6, 45: 9}","[5, 39, 45]",56392459
Y2ReB6,mp-504560,0.0,5.99488832,0.0,"{39: 2, 75: 1, 5: 6}","[5, 39, 75]",56392751
Y2B6Os,mp-1201886,0.0,6.68815191,0.0,"{39: 2, 5: 6, 76: 1}","[5, 39, 76]",56392761
Y3(B3Os4)2,mp-571209,0.0,6.54905488,0.024950046029415418,"{39: 3, 5: 6, 76: 8}","[5, 39, 76]",56393768
ZrB6,mp-1001788,0.0,6.82332535,0.4022764204761913,"{40: 1, 5: 6}","[5, 40]",56401
Nb5B6,mp-1102394,0.0,7.21024751,0.0,"{41: 5, 5: 6}","[5, 41]",56415
U2B6Mo,mp-1195876,0.0,10.5739271,0.0,"{92: 2, 5: 6, 42: 1}","[5, 42, 92]",56421922
Pu2TcB6,mp-1197233,0.0,11.02720128,0.0,"{94: 2, 43: 1, 5: 6}","[5, 43, 94]",56431942
Tb2B6Ru,mp-1200192,0.0,6.45160358,0.0,"{65: 2, 5: 6, 44: 1}","[5, 44, 65]",56441652
Dy2B6Ru,mp-1198707,0.0,6.4284545,0.0,"{66: 2, 5: 6, 44: 1}","[5, 44, 66]",56441662
Ho2B6Ru,mp-1198017,0.0,6.39511589,0.0,"{67: 2, 5: 6, 44: 1}","[5, 44, 67]",56441672
Er2B6Ru,mp-1198465,0.0,6.47843779,0.0,"{68: 2, 5: 6, 44: 1}","[5, 44, 68]",56441682
Tm2B6Ru,mp-1196973,0.0,6.49329289,0.0,"{69: 2, 5: 6, 44: 1}","[5, 44, 69]",56441692
Lu2B6Ru,mp-1201540,0.0,6.50879989,0.0,"{71: 2, 5: 6, 44: 1}","[5, 44, 71]",56441712
Pu2B6Ru,mp-1201055,0.0,10.84574487,0.002965440486109472,"{94: 2, 5: 6, 44: 1}","[5, 44, 94]",56441942
La3(B3Ru4)2,mp-4676,0.0,8.17566789,0.0,"{57: 3, 5: 6, 44: 8}","[5, 44, 57]",56448573
Ho2B6Rh,mp-1212391,0.0,6.33198347,0.0,"{67: 2, 5: 6, 45: 1}","[5, 45, 67]",56451672
Er2B6Rh,mp-1212905,0.0,6.3893536,0.0,"{68: 2, 5: 6, 45: 1}","[5, 45, 68]",56451682
Tm2B6Rh,mp-1208020,0.0,6.38502204,0.0,"{69: 2, 5: 6, 45: 1}","[5, 45, 69]",56451692
Lu2B6Rh,mp-1211036,0.0,6.43098689,0.0,"{71: 2, 5: 6, 45: 1}","[5, 45, 71]",56451712
Eu3(B3Rh4)2,mp-672322,0.0,5.97516798,0.0,"{63: 3, 5: 6, 45: 8}","[5, 45, 63]",56458633
La2(B2Rh3)3,mp-1223329,0.0,7.36502868,0.0,"{57: 2, 5: 6, 45: 9}","[5, 45, 57]",56459572
Ce2(B2Rh3)3,mp-1227070,0.0,7.04113176,0.0,"{58: 2, 5: 6, 45: 9}","[5, 45, 58]",56459582
Tb2(B2Rh3)3,mp-1217714,0.0,5.89871088,0.0,"{65: 2, 5: 6, 45: 9}","[5, 45, 65]",56459652
Dy2(B2Rh3)3,mp-1225361,0.0,5.85912131,0.0,"{66: 2, 5: 6, 45: 9}","[5, 45, 66]",56459662
Ho2(B2Rh3)3,mp-1224217,0.0,5.90500431,0.0,"{67: 2, 5: 6, 45: 9}","[5, 45, 67]",56459672
Er2(B2Rh3)3,mp-1225103,0.0,5.85455421,0.0,"{68: 2, 5: 6, 45: 9}","[5, 45, 68]",56459682
Tm2(B2Rh3)3,mp-1216756,0.0,5.82527487,0.0014317379117647633,"{69: 2, 5: 6, 45: 9}","[5, 45, 69]",56459692
Lu2(B2Rh3)3,mp-1222515,0.0,5.74785712,0.01255737494117426,"{71: 2, 5: 6, 45: 9}","[5, 45, 71]",56459712
SnB6,mp-1094049,0.7525000000000004,6.27917655,0.17392729857142974,"{50: 1, 5: 6}","[5, 50]",56501
Cs(BI)6,mp-640353,1.6875999999999998,1.14412692,0.0,"{55: 1, 5: 6, 53: 6}","[5, 53, 55]",56536551
BaB6,mp-954,0.0,4.20854871,0.0,"{56: 1, 5: 6}","[5, 56]",56561
LaB6,mp-2680,0.0,8.81891007,0.0,"{57: 1, 5: 6}","[5, 57]",56571
CeB6,mp-21343,0.0,8.16098084,0.0,"{58: 1, 5: 6}","[5, 58]",56581
Ce2(ReB2)3,mp-1190580,0.0,8.37779556,0.0,"{58: 2, 75: 3, 5: 6}","[5, 58, 75]",56582753