formula,material_id,band_gap,efermi,energy_above_hull,comp_atoms,sorted_keys_comp_atoms,comp_number
Mg14BCO16,mp-1033731,1.0647000000000002,5.14084261,0.3277827271679685,"{12: 14, 5: 1, 6: 1, 8: 16}","[5, 6, 8, 12]",51618161214
Mg30BCO32,mp-1038482,1.8056,4.76961476,0.164928749990235,"{12: 30, 5: 1, 6: 1, 8: 32}","[5, 6, 8, 12]",51618321230
AgBTe4C(OF4)5,mp-559834,3.5957,-1.66676122,0.0852510424218762,"{47: 1, 5: 1, 52: 4, 6: 1, 8: 5, 9: 20}","[5, 6, 8, 9, 47, 52]",516185920471524
UBCO5,mp-1197513,0.0,-1.33260812,1.4012661640364614,"{92: 1, 5: 1, 6: 1, 8: 5}","[5, 6, 8, 92]",516185921
YBCO7,mp-726274,1.7928000000000002,-0.38067455,0.5419758450833347,"{39: 1, 5: 1, 6: 1, 8: 7}","[5, 6, 8, 39]",516187391
Mg6BCO8,mp-1033291,0.5317000000000007,5.53913506,0.6538850068359379,"{12: 6, 5: 1, 6: 1, 8: 8}","[5, 6, 8, 12]",516188126
ThBC,mp-570254,0.0,7.14033051,0.0,"{90: 1, 5: 1, 6: 1}","[5, 6, 90]",5161901
UBC,mp-5816,0.0,10.9472493,0.0,"{92: 1, 5: 1, 6: 1}","[5, 6, 92]",5161921
KBCF6,mp-559721,6.828900000000001,-2.44396356,0.20003544625000202,"{19: 1, 5: 1, 6: 1, 9: 6}","[5, 6, 9, 19]",516196191
Sc2BC2,mp-10343,0.0,5.48724372,0.0,"{21: 2, 5: 1, 6: 2}","[5, 6, 21]",5162212
Mn5Fe2BC2,mp-1196534,0.0,7.49330276,0.07086716667391357,"{25: 5, 26: 2, 5: 1, 6: 2}","[5, 6, 25, 26]",5162255262
La3B(CBr)2,mp-569072,0.0,7.26836323,0.004193981900193933,"{57: 3, 5: 1, 6: 2, 35: 2}","[5, 6, 35, 57]",5162352573
BC24Br(NF2)6,mp-1215033,1.4867,0.51564679,0.23241699667258775,"{5: 1, 6: 24, 35: 1, 7: 6, 9: 12}","[5, 6, 7, 9, 35]",5162476912351
BC2N,mp-629458,1.661900000000001,9.591655,0.5407360800000021,"{5: 1, 6: 2, 7: 1}","[5, 6, 7]",516271
KB(CN)2,mp-1211861,0.0,0.86520419,1.0207095597916664,"{19: 1, 5: 1, 6: 2, 7: 2}","[5, 6, 7, 19]",516272191
RbB(CN)2,mp-1209706,0.6080000000000001,0.2981822,0.8692939947916685,"{37: 1, 5: 1, 6: 2, 7: 2}","[5, 6, 7, 37]",516272371
TlB(CN)2,mp-1208153,0.0,1.22176808,1.0498652918750002,"{81: 1, 5: 1, 6: 2, 7: 2}","[5, 6, 7, 81]",516272811
Co5B16,mp-1194572,0.0,7.51862775,0.029816534722222343,"{27: 5, 5: 16}","[5, 27]",516275
AgBTe4C2(O3F10)2,mp-557494,2.8863000000000003,-2.00904225,0.16098580046568767,"{47: 1, 5: 1, 52: 4, 6: 2, 8: 6, 9: 20}","[5, 6, 8, 9, 47, 52]",516286920471524
CsB(CF4)2,mp-505375,6.4977,-1.93390171,0.2882199679166666,"{55: 1, 5: 1, 6: 2, 9: 8}","[5, 6, 9, 55]",516298551
BC3,mp-1239206,0.0,7.47242418,0.28015149223958424,"{5: 1, 6: 3}","[5, 6]",5163
Al3BC3,mp-1228599,1.8202999999999996,5.95087627,0.0,"{13: 3, 5: 1, 6: 3}","[5, 6, 13]",5163133
EuBPt4,mp-1103637,0.0,5.81305857,0.0,"{63: 1, 5: 1, 78: 4}","[5, 63, 78]",51631784
Cr6BC3,mp-1226023,0.0,8.00812933,0.03320973062500343,"{24: 6, 5: 1, 6: 3}","[5, 6, 24]",5163246
Lu3BC3,mp-10566,0.0,4.20583994,0.0,"{71: 3, 5: 1, 6: 3}","[5, 6, 71]",5163713
CsBC3NOF9,mp-555532,4.888,-0.29046843,0.49912028269530584,"{55: 1, 5: 1, 6: 3, 7: 1, 8: 1, 9: 9}","[5, 6, 7, 8, 9, 55]",5163718199551
CsBC3NO2F9,mp-559063,3.4032,-1.69457924,0.5083149476102928,"{55: 1, 5: 1, 6: 3, 7: 1, 8: 2, 9: 9}","[5, 6, 7, 8, 9, 55]",5163718299551
K2B(CN)3,mp-1205404,2.4621,0.69966525,0.32223325722221396,"{19: 2, 5: 1, 6: 3, 7: 3}","[5, 6, 7, 19]",516373192
KBC3N3F,mp-1106282,5.729,-4.13095123,0.3566258155555575,"{19: 1, 5: 1, 6: 3, 7: 3, 9: 1}","[5, 6, 7, 9, 19]",51637391191
YLuTh2(BRh)16,mp-1216246,0.0,7.4600022,0.03516783874228224,"{39: 1, 71: 1, 90: 2, 5: 16, 45: 16}","[5, 39, 45, 71, 90]",5163914516711902
Ca5BC4Cl3,mp-1227228,0.8796999999999997,4.46961051,0.035846970461538064,"{20: 5, 5: 1, 6: 4, 17: 3}","[5, 6, 17, 20]",5164173205
Sc4BC4,mp-1219411,0.0,4.80850919,0.13584879534391803,"{21: 4, 5: 1, 6: 4}","[5, 6, 21]",5164214
KBC4NF9,mp-559648,6.8492999999999995,-3.12787125,0.4078434438671801,"{19: 1, 5: 1, 6: 4, 7: 1, 9: 9}","[5, 6, 7, 9, 19]",51647199191
NaB(CN)4,mp-571433,6.5013,-4.75453105,0.3721239689999942,"{11: 1, 5: 1, 6: 4, 7: 4}","[5, 6, 7, 11]",516474111
KB(CN)4,mp-574060,6.237,-3.79702654,0.3870327204166628,"{19: 1, 5: 1, 6: 4, 7: 4}","[5, 6, 7, 19]",516474191
CuB(CN)4,mp-13589,3.2264000000000004,-0.20104109,0.36049953500000065,"{29: 1, 5: 1, 6: 4, 7: 4}","[5, 6, 7, 29]",516474291
RbB(CN)4,mp-13591,6.3138000000000005,-3.99172563,0.37636178525000297,"{37: 1, 5: 1, 6: 4, 7: 4}","[5, 6, 7, 37]",516474371
AgB(CN)4,mp-10413,4.2798,-2.20769146,0.43943451883333395,"{47: 1, 5: 1, 6: 4, 7: 4}","[5, 6, 7, 47]",516474471
CsB(CN)4,mp-13588,6.3553,-3.96039526,0.3049746589999991,"{55: 1, 5: 1, 6: 4, 7: 4}","[5, 6, 7, 55]",516474551
HgB(CN)4,mp-669526,3.6368,-2.24344333,0.48823101024999893,"{80: 1, 5: 1, 6: 4, 7: 4}","[5, 6, 7, 80]",516474801
TlB(CN)4,mp-13592,5.2197,-2.46759966,0.37062352037499924,"{81: 1, 5: 1, 6: 4, 7: 4}","[5, 6, 7, 81]",516474811
NaB(CO2)4,mp-559618,3.5338,-0.86929132,0.07018019454240942,"{11: 1, 5: 1, 6: 4, 8: 8}","[5, 6, 8, 11]",516488111
KB(CO2)4,mp-559030,3.2605,-1.38231299,0.05406898552631478,"{19: 1, 5: 1, 6: 4, 8: 8}","[5, 6, 8, 19]",516488191
KB(CF3)4,mp-1202400,7.8591,-2.35293972,0.3654298337499977,"{19: 1, 5: 1, 6: 4, 9: 12}","[5, 6, 9, 19]",5164912191
BC5,mp-1077125,0.0,8.90669278,0.2503226075347218,"{5: 1, 6: 5}","[5, 6]",5165
Al8BC5,mp-1228130,0.0,6.72896251,0.04614320412202488,"{13: 8, 5: 1, 6: 5}","[5, 6, 13]",5165138
BC6BrNF5,mp-1214918,3.8548,2.95763814,0.3351205922953868,"{5: 1, 6: 6, 35: 1, 7: 1, 9: 5}","[5, 6, 7, 9, 35]",51667195351
Ca24Mg8B16C8O73,mp-1228648,0.14350000000000018,1.21493888,0.016854591957373266,"{20: 24, 12: 8, 5: 16, 6: 8, 8: 73}","[5, 6, 8, 12, 20]",516688731282024
BC6XeF11,mp-1195493,1.5918999999999999,-0.36617636,0.48464475026316123,"{5: 1, 6: 6, 54: 1, 9: 11}","[5, 6, 9, 54]",5166911541
BC7,mp-1078935,0.0,9.47216087,0.21537653127604095,"{5: 1, 6: 7}","[5, 6]",5167
Sr16Cu8BC7O40,mp-686590,0.0,3.06114208,0.03336313472221608,"{38: 16, 29: 8, 5: 1, 6: 7, 8: 40}","[5, 6, 8, 29, 38]",51678402983816
Er2BPt6,mp-1225050,0.0,6.72801182,0.0,"{68: 2, 5: 1, 78: 6}","[5, 68, 78]",51682786
Rb2Cd3(B4O7)4,mp-1200744,4.5081,0.09991722,0.005010448167362291,"{37: 2, 48: 3, 5: 16, 8: 28}","[5, 8, 37, 48]",516828372483
Cs2Cd3(B4O7)4,mp-1201213,4.5525,0.33336225,0.0019591232448910034,"{55: 2, 48: 3, 5: 16, 8: 28}","[5, 8, 48, 55]",516828483552
CoBC8(OF2)5,mp-562548,3.2546999999999997,-2.29519704,0.38641254522500024,"{27: 1, 5: 1, 6: 8, 8: 5, 9: 10}","[5, 6, 8, 9, 27]",516885910271
TmBPt2,mp-1103146,0.0,5.94304015,0.0,"{69: 1, 5: 1, 78: 2}","[5, 69, 78]",51691782
BN,mp-604884,4.3683,2.25632505,0.0,"{5: 1, 7: 1}","[5, 7]",5171
Na2BN,mp-1189680,0.0,2.19550081,0.5787397235991376,"{11: 2, 5: 1, 7: 1}","[5, 7, 11]",5171112
BPBr2NCl3,mp-568514,2.9078,-0.33850727,0.05745217925000379,"{5: 1, 15: 1, 35: 2, 7: 1, 17: 3}","[5, 7, 15, 17, 35]",5171151173352
BNCl,mp-726087,0.0,-1.6707046,0.7178638500000023,"{5: 1, 7: 1, 17: 1}","[5, 7, 17]",5171171
BNCl2,mp-23045,2.8370999999999995,-0.46903595,0.24423907874999884,"{5: 1, 7: 1, 17: 2}","[5, 7, 17]",5171172
BNCl4,mp-1247897,0.5600999999999998,-3.2919379,0.42688248305555465,"{5: 1, 7: 1, 17: 4}","[5, 7, 17]",5171174
LuBPt2,mp-1095320,0.0,5.94184872,0.0,"{71: 1, 5: 1, 78: 2}","[5, 71, 78]",51711782
CaNiBN,mp-1079500,0.0,5.61328533,0.0,"{20: 1, 28: 1, 5: 1, 7: 1}","[5, 7, 20, 28]",5171201281
LaNiBN,mp-20881,0.0,9.07839878,0.0,"{57: 1, 28: 1, 5: 1, 7: 1}","[5, 7, 28, 57]",5171281571
Zr2BN,mp-1215435,0.0,5.73380572,0.11345460875000057,"{40: 2, 5: 1, 7: 1}","[5, 7, 40]",5171402
SrBNO,mp-554759,3.2544999999999997,2.48474972,0.031448794166665905,"{38: 1, 5: 1, 7: 1, 8: 1}","[5, 7, 8, 38]",517181381
Si8BNO18,mp-728690,0.0,-1.41878959,0.26740489796130795,"{14: 8, 5: 1, 7: 1, 8: 18}","[5, 7, 8, 14]",5171818148
BN(OF2)2,mp-555207,3.0021999999999998,-2.93167039,0.0,"{5: 1, 7: 1, 8: 2, 9: 4}","[5, 7, 8, 9]",51718294
VBP2NO9,mp-1207936,1.3636000000000001,-0.13240636,0.41110034732142786,"{23: 1, 5: 1, 15: 2, 7: 1, 8: 9}","[5, 7, 8, 15, 23]",517189152231
FeBP2NO9,mp-1212760,0.0,-0.70878013,0.5782436467857188,"{26: 1, 5: 1, 15: 2, 7: 1, 8: 9}","[5, 7, 8, 15, 26]",517189152261
UBN,mp-5311,0.0,11.9347842,0.0,"{92: 1, 5: 1, 7: 1}","[5, 7, 92]",5171921
K3B17,mp-684709,0.0,2.82417695,0.11827181580833379,"{19: 3, 5: 17}","[5, 19]",517193
BNF4,mp-1182455,2.7230999999999996,-4.00689525,0.7460453397499966,"{5: 1, 7: 1, 9: 4}","[5, 7, 9]",517194
BNF8,mp-4674,2.9979,-2.83626763,0.0,"{5: 1, 7: 1, 9: 8}","[5, 7, 9]",517198
HfB,mp-345,0.0,5.47241848,0.3499170749999969,"{72: 1, 5: 1}","[5, 72]",51721
KNa2BN2,mp-1019888,1.8180999999999998,1.39552809,0.0,"{19: 1, 11: 2, 5: 1, 7: 2}","[5, 7, 11, 19]",5172112191
Na3BN2,mp-28630,1.6485000000000003,1.43576793,0.0,"{11: 3, 5: 1, 7: 2}","[5, 7, 11]",5172113
Mg2BN2Cl,mp-581639,3.6701,1.90908453,0.02583329843750093,"{12: 2, 5: 1, 7: 2, 17: 1}","[5, 7, 12, 17]",5172122171
Mg2BBrN2,mp-1102794,3.3419,1.62577456,0.030306329479167005,"{12: 2, 5: 1, 35: 1, 7: 2}","[5, 7, 12, 35]",5172122351
AlBN2,mp-1008557,3.0501000000000005,6.95383772,0.3846442475000007,"{13: 1, 5: 1, 7: 2}","[5, 7, 13]",5172131
BP2N2Cl7,mp-569608,2.9211,-0.35824385,0.0016078472916678521,"{5: 1, 15: 2, 7: 2, 17: 7}","[5, 7, 15, 17]",5172152177
BN2Cl,mp-1106370,0.483,0.0585445,1.123198117500003,"{5: 1, 7: 2, 17: 1}","[5, 7, 17]",5172171
Ca2BN2Cl,mp-23632,3.333,2.18110453,0.0,"{20: 2, 5: 1, 7: 2, 17: 1}","[5, 7, 17, 20]",5172171202
Sr2BN2Cl,mp-23131,2.7508,1.73988163,0.0,"{38: 2, 5: 1, 7: 2, 17: 1}","[5, 7, 17, 38]",5172171382
Ba2BN2Cl,mp-568923,2.7508,1.69113131,0.0,"{56: 2, 5: 1, 7: 2, 17: 1}","[5, 7, 17, 56]",5172171562
K3BN2,mp-1029756,1.5852000000000002,1.08516139,0.03594743602777761,"{19: 3, 5: 1, 7: 2}","[5, 7, 19]",5172193
Ca3BI3N2,mp-1195197,3.9459999999999997,1.44950382,0.0,"{20: 3, 5: 1, 53: 3, 7: 2}","[5, 7, 20, 53]",5172203533
ScBN2,mp-1245522,1.8730000000000002,5.00895121,0.2564796474999991,"{21: 1, 5: 1, 7: 2}","[5, 7, 21]",5172211
CrBN2,mp-1246479,0.6791999999999998,5.22241172,0.40542755124999985,"{24: 1, 5: 1, 7: 2}","[5, 7, 24]",5172241
Hf2BIr6,mp-1223830,0.0,8.27120926,0.0,"{72: 2, 5: 1, 77: 6}","[5, 72, 77]",51722776
Hf2BiB,mp-631558,0.0,5.98007639,1.4865406254166675,"{72: 2, 83: 1, 5: 1}","[5, 72, 83]",51722831
GaBN2,mp-1007823,3.1499000000000006,5.75573523,0.3843638125000002,"{31: 1, 5: 1, 7: 2}","[5, 7, 31]",5172311
Sr2BBrN2,mp-1077553,2.4076,1.51197353,0.0,"{38: 2, 5: 1, 35: 1, 7: 2}","[5, 7, 35, 38]",5172351382
Eu2BBrN2,mp-1077381,0.0,4.64389404,0.0,"{63: 2, 5: 1, 35: 1, 7: 2}","[5, 7, 35, 63]",5172351632
Rb3BN2,mp-1247386,1.2192000000000003,2.71199652,0.1093596936111112,"{37: 3, 5: 1, 7: 2}","[5, 7, 37]",5172373
Sr2BIN2,mp-569810,2.5325999999999995,1.77565438,0.0,"{38: 2, 5: 1, 53: 1, 7: 2}","[5, 7, 38, 53]",5172382531
YBN2,mp-1215903,0.0,5.1650988,1.2104261887499987,"{39: 1, 5: 1, 7: 2}","[5, 7, 39]",5172391
InBN2,mp-1246039,1.7912,4.70560179,0.3147836399999999,"{49: 1, 5: 1, 7: 2}","[5, 7, 49]",5172491
Eu2BIN2,mp-1192731,0.18949999999999978,4.47893743,0.0,"{63: 2, 5: 1, 53: 1, 7: 2}","[5, 7, 53, 63]",5172531632
Cs3BN2,mp-1247247,0.6065999999999998,2.83017509,0.15961527883620974,"{55: 3, 5: 1, 7: 2}","[5, 7, 55]",5172553
LaBN2,mp-29597,2.1727999999999996,6.9589824,0.0,"{57: 1, 5: 1, 7: 2}","[5, 7, 57]",5172571
CeBN2,mp-29595,0.0,8.69433899,0.07258627208333301,"{58: 1, 5: 1, 7: 2}","[5, 7, 58]",5172581
PrBN2,mp-9028,2.1062000000000003,3.85478774,0.0,"{59: 1, 5: 1, 7: 2}","[5, 7, 59]",5172591
NdBN2,mp-1192144,2.1679999999999997,3.83755335,0.0,"{60: 1, 5: 1, 7: 2}","[5, 7, 60]",5172601
SmBN2,mp-1192040,2.3704,3.73306888,0.0,"{62: 1, 5: 1, 7: 2}","[5, 7, 62]",5172621
EuBN2,mp-1019734,0.0,3.12614175,0.0,"{63: 1, 5: 1, 7: 2}","[5, 7, 63]",5172631
GdBN2,mp-1192012,2.1031,5.7583301,0.0,"{64: 1, 5: 1, 7: 2}","[5, 7, 64]",5172641
Ba4Pr7Si12BN27,mp-695596,0.0,4.73885567,0.008368574832513076,"{56: 4, 59: 7, 14: 12, 5: 1, 7: 27}","[5, 7, 14, 56, 59]",517271412564597
Ba4Nd7Si12BN27,mp-695553,0.0,4.70237529,0.007366281168287969,"{56: 4, 60: 7, 14: 12, 5: 1, 7: 27}","[5, 7, 14, 56, 60]",517271412564607
Ba4Sm7Si12BN27,mp-693655,0.0,4.67669912,0.00717167573427524,"{56: 4, 62: 7, 14: 12, 5: 1, 7: 27}","[5, 7, 14, 56, 62]",517271412564627
BS2N2OF7,mp-556762,4.9587,-2.03714304,0.23526242509615614,"{5: 1, 16: 2, 7: 2, 8: 1, 9: 7}","[5, 7, 8, 9, 16]",51728197162
La3BN2O3,mp-1019895,1.2114000000000011,7.27938992,0.03452849328704133,"{57: 3, 5: 1, 7: 2, 8: 3}","[5, 7, 8, 57]",517283573
Ca2BN2F,mp-10233,2.9265,2.47755298,0.0,"{20: 2, 5: 1, 7: 2, 9: 1}","[5, 7, 9, 20]",517291202
Sr2BN2F,mp-10234,2.5675,2.0463315,0.0,"{38: 2, 5: 1, 7: 2, 9: 1}","[5, 7, 9, 38]",517291382
Hf9BW4,mp-1212438,0.0,5.19599798,0.020374634285708737,"{72: 9, 5: 1, 74: 4}","[5, 72, 74]",51729744
Hf9Re4B,mp-1193562,0.0,5.5351145,0.0,"{72: 9, 75: 4, 5: 1}","[5, 72, 75]",51729754
Hf9BOs4,mp-1193665,0.0,5.8235527,0.10370432607143698,"{72: 9, 5: 1, 76: 4}","[5, 72, 76]",51729764
TaB,mp-1097,0.0,7.93101406,0.0,"{73: 1, 5: 1}","[5, 73]",51731
Mg3BN3,mp-28955,1.3798,3.37584973,0.030753059821428508,"{12: 3, 5: 1, 7: 3}","[5, 7, 12]",5173123
BN3Cl2,mp-27486,3.0347,-1.53716228,0.17586858402777672,"{5: 1, 7: 3, 17: 2}","[5, 7, 17]",5173172
Ta2B,mp-1032,0.0,6.41356212,0.03365034711111292,"{73: 2, 5: 1}","[5, 73]",51732
Ca3BN3,mp-30315,0.5682,4.22677379,0.0,"{20: 3, 5: 1, 7: 3}","[5, 7, 20]",5173203
Sr3BN3,mp-1029665,0.4152,2.9556099,0.08747651726190497,"{38: 3, 5: 1, 7: 3}","[5, 7, 38]",5173383
Zr4BN3,mp-1246929,0.0,6.53901389,0.006753295624999822,"{40: 4, 5: 1, 7: 3}","[5, 7, 40]",5173404
BMoN3,mp-1246423,1.0201000000000002,0.9895695,0.3811303927999994,"{5: 1, 42: 1, 7: 3}","[5, 7, 42]",5173421
Ba3BN3,mp-1246468,0.19750000000000023,2.32505232,0.13859504166666703,"{56: 3, 5: 1, 7: 3}","[5, 7, 56]",5173563
Ta2BN3,mp-972309,0.0,5.40890469,1.1313573713888943,"{73: 2, 5: 1, 7: 3}","[5, 7, 73]",5173732
FeBN3O3F4,mp-631397,1.2843,-1.33940531,0.43783335692130176,"{26: 1, 5: 1, 7: 3, 8: 3, 9: 4}","[5, 7, 8, 9, 26]",51738394261
La6B(NO2)3,mp-560824,1.0926,7.26402808,0.004528767070310025,"{57: 6, 5: 1, 7: 3, 8: 6}","[5, 7, 8, 57]",517386576
BW,mp-7832,0.0,9.03897167,0.0,"{5: 1, 74: 1}","[5, 74]",51741
YAl2BN4,mp-1215931,0.8799999999999999,5.92483956,0.5480093431250008,"{39: 1, 13: 2, 5: 1, 7: 4}","[5, 7, 13, 39]",5174132391
Al3BN4,mp-1019380,3.3606000000000007,6.4541594,0.2518434000000003,"{13: 3, 5: 1, 7: 4}","[5, 7, 13]",5174133
ReBW,mp-1219534,0.0,8.22513851,0.034621256944440404,"{75: 1, 5: 1, 74: 1}","[5, 74, 75]",51741751
BW2,mp-1113,0.0,7.79395943,0.0,"{5: 1, 74: 2}","[5, 74]",51742
Ga3BN4,mp-1019743,2.3955,4.37024359,0.2234889624999994,"{31: 3, 5: 1, 7: 4}","[5, 7, 31]",5174313
BS4N4F3,mp-16813,1.8149,-0.32622795,0.19156156645833278,"{5: 1, 16: 4, 7: 4, 9: 3}","[5, 7, 9, 16]",517493164
BS4(NF)4,mp-1201734,0.42069999999999996,0.37801718,0.19395055615384393,"{5: 1, 16: 4, 7: 4, 9: 4}","[5, 7, 9, 16]",517494164
ReB,mp-28893,0.0,4.84720051,0.35085773275000065,"{75: 1, 5: 1}","[5, 75]",51751
Re3B,mp-15671,0.0,8.08525993,0.0,"{75: 3, 5: 1}","[5, 75]",51753
BOs,mp-997617,0.0,8.5792653,0.0,"{5: 1, 76: 1}","[5, 76]",51761
BOs3,mp-1183263,0.0,8.44162066,0.8959248875000014,"{5: 1, 76: 3}","[5, 76]",51763
BIr,mp-1183252,0.0,8.99016396,0.0,"{5: 1, 77: 1}","[5, 77]",51771
BPt,mp-1096829,0.0,7.46293432,0.19370460770833375,"{5: 1, 78: 1}","[5, 78]",51781
BPt2,mp-1077788,0.0,7.23534583,0.0,"{5: 1, 78: 2}","[5, 78]",51782
BPt3,mp-861943,0.0,5.87431163,0.11299173750000335,"{5: 1, 78: 3}","[5, 78]",51783
BAu,mp-1183149,0.0,4.36360734,0.8404483029166663,"{5: 1, 79: 1}","[5, 79]",51791
B17F27,mp-30935,2.5751,-2.30382041,0.16120769014204583,"{5: 17, 9: 27}","[5, 9]",517927
BAu3,mp-1183146,0.0,5.07366794,0.8769440827083343,"{5: 1, 79: 3}","[5, 79]",51793
BW4N9,mp-1246918,0.9237000000000002,4.28286775,0.30748695142856874,"{5: 1, 74: 4, 7: 9}","[5, 7, 74]",5179744
Hg3B,mp-1184725,0.0,2.91652989,1.0553065914583328,"{80: 3, 5: 1}","[5, 80]",51803
Mg2B(PO5)2,mp-1193704,0.044499999999999984,0.95672697,0.16882828114881843,"{12: 2, 5: 1, 15: 2, 8: 10}","[5, 8, 12, 15]",51810122152
La3Si2BO10,mp-773117,4.3318,4.3630881,0.0,"{57: 3, 14: 2, 5: 1, 8: 10}","[5, 8, 14, 57]",51810142573
Ce3Si2BO10,mp-558019,0.0,7.28154267,0.009212066015594544,"{58: 3, 14: 2, 5: 1, 8: 10}","[5, 8, 14, 58]",51810142583
Pr3Si2BO10,mp-1196034,4.7116,2.48937794,0.0,"{59: 3, 14: 2, 5: 1, 8: 10}","[5, 8, 14, 59]",51810142593
Sm3Si2BO10,mp-13500,4.8153,2.39009307,0.0,"{62: 3, 14: 2, 5: 1, 8: 10}","[5, 8, 14, 62]",51810142623
Eu3Si2BO10,mp-1196416,0.0,2.10825995,0.07348393361979433,"{63: 3, 14: 2, 5: 1, 8: 10}","[5, 8, 14, 63]",51810142633
Gd3Si2BO10,mp-1198316,2.807,2.35966489,0.012347486901038707,"{64: 3, 14: 2, 5: 1, 8: 10}","[5, 8, 14, 64]",51810142643
Mn3BPO10,mp-1197087,0.0,1.51018073,0.27854527433332077,"{25: 3, 5: 1, 15: 1, 8: 10}","[5, 8, 15, 25]",51810151253
Bi4BPO10,mp-1196273,2.8219000000000003,3.74439307,0.0,"{83: 4, 5: 1, 15: 1, 8: 10}","[5, 8, 15, 83]",51810151834
ScB(PO5)2,mp-1209202,0.28259999999999996,-0.95921164,0.31637359309524093,"{21: 1, 5: 1, 15: 2, 8: 10}","[5, 8, 15, 21]",51810152211
Co2BiB(PO5)2,mp-1201553,2.0164999999999997,3.38466553,0.06128605593750347,"{27: 2, 83: 1, 5: 1, 15: 2, 8: 10}","[5, 8, 15, 27, 83]",51810152272831
Ni2BiB(PO5)2,mp-1196616,3.5479,3.63866021,0.008005835416665441,"{28: 2, 83: 1, 5: 1, 15: 2, 8: 10}","[5, 8, 15, 28, 83]",51810152282831
Sr4Mn3BO10,mp-1208742,0.0,3.27255504,0.006508369521571744,"{38: 4, 25: 3, 5: 1, 8: 10}","[5, 8, 25, 38]",51810253384
Bi5BO10,mp-769030,0.01890000000000036,3.42773721,0.0995412856250022,"{83: 5, 5: 1, 8: 10}","[5, 8, 83]",51810835
NaMgBP2O11,mp-1213265,0.6935,-0.27506712,0.46970357352964687,"{11: 1, 12: 1, 5: 1, 15: 2, 8: 11}","[5, 8, 11, 12, 15]",51811111121152
NaFeBP2O11,mp-1211025,0.0,0.18635251,0.35452266866146864,"{11: 1, 26: 1, 5: 1, 15: 2, 8: 11}","[5, 8, 11, 15, 26]",51811111152261
NaNiBP2O11,mp-1211194,0.042100000000000026,0.38835872,0.3636241824340267,"{11: 1, 28: 1, 5: 1, 15: 2, 8: 11}","[5, 8, 11, 15, 28]",51811111152281
NaZnBP2O11,mp-1211826,0.7682,-0.3115861,0.47098556031250105,"{11: 1, 30: 1, 5: 1, 15: 2, 8: 11}","[5, 8, 11, 15, 30]",51811111152301
FeBP2O11,mp-1213402,0.0,-0.30967741,0.4500153961111133,"{26: 1, 5: 1, 15: 2, 8: 11}","[5, 8, 15, 26]",51811152261
CsFeBP3O11,mp-1197350,2.452,0.70256417,0.004326784852923815,"{55: 1, 26: 1, 5: 1, 15: 3, 8: 11}","[5, 8, 15, 26, 55]",51811153261551
CsBS3O11,mp-1019717,5.643800000000001,-1.12428989,0.0,"{55: 1, 5: 1, 16: 3, 8: 11}","[5, 8, 16, 55]",51811163551
Na6B18Se17,mp-1220895,2.1085000000000003,1.21619753,0.0,"{11: 6, 5: 18, 34: 17}","[5, 11, 34]",5181163417
K2Si5BO12,mp-1211911,0.0,5.73061894,0.10178527443750696,"{19: 2, 14: 5, 5: 1, 8: 12}","[5, 8, 14, 19]",51812145192
V2B(PO4)3,mp-560575,0.0,3.61822535,0.058178012870371276,"{23: 2, 5: 1, 15: 3, 8: 12}","[5, 8, 15, 23]",51812153232
Cr2B(PO4)3,mp-559723,3.0596999999999994,1.26514239,0.005144450833332925,"{24: 2, 5: 1, 15: 3, 8: 12}","[5, 8, 15, 24]",51812153242
Fe2B(PO4)3,mp-1197728,2.025,0.97426635,0.012644074166662023,"{26: 2, 5: 1, 15: 3, 8: 12}","[5, 8, 15, 26]",51812153262
In2B(PO4)3,mp-1198577,3.9141,1.39831302,0.0005175841666549275,"{49: 2, 5: 1, 15: 3, 8: 12}","[5, 8, 15, 49]",51812153492
Ba3B(PO4)3,mp-6578,5.0114,1.20157953,0.002143312587722157,"{56: 3, 5: 1, 15: 3, 8: 12}","[5, 8, 15, 56]",51812153563
BP3(PbO4)3,mp-1203864,3.9628,2.58540365,0.00057345050439217,"{5: 1, 15: 3, 82: 3, 8: 12}","[5, 8, 15, 82]",51812153823
K3B(SO4)3,mp-1019789,5.2623,-0.40880603,0.0,"{19: 3, 5: 1, 16: 3, 8: 12}","[5, 8, 16, 19]",51812163193
Rb3B(SO4)3,mp-1020716,5.1274,-0.47347855,0.0,"{37: 3, 5: 1, 16: 3, 8: 12}","[5, 8, 16, 37]",51812163373
GdB(SO4)3,mp-1194925,2.6591,3.0231958,0.0,"{64: 1, 5: 1, 16: 3, 8: 12}","[5, 8, 16, 64]",51812163641
KBS4(ClO3)4,mp-560423,4.3746,-1.86748289,0.0,"{19: 1, 5: 1, 16: 4, 17: 4, 8: 12}","[5, 8, 16, 17, 19]",51812164174191
Rb3B(SeO4)3,mp-1201509,3.0595,-0.94336226,0.0,"{37: 3, 5: 1, 34: 3, 8: 12}","[5, 8, 34, 37]",51812343373
Cs3B(SeO4)3,mp-1201201,3.1535,2.35501963,0.0,"{55: 3, 5: 1, 34: 3, 8: 12}","[5, 8, 34, 55]",51812343553
Na4Al3Si3B(O3F)4,mp-1173755,0.532,0.52994488,0.217129381848312,"{11: 4, 13: 3, 14: 3, 5: 1, 8: 12, 9: 4}","[5, 8, 9, 11, 13, 14]",5181294114133143