formula,material_id,band_gap,efermi,energy_above_hull,comp_atoms,sorted_keys_comp_atoms,comp_number
Cs3Li4(BO2)7,mp-1019615,4.5217,0.2681632,0.0,"{55: 3, 3: 4, 5: 7, 8: 14}","[3, 5, 8, 55]",3457814553
Li5B(SO4)4,mp-1020018,6.108199999999999,0.01920278,0.008201061346151839,"{3: 5, 5: 1, 16: 4, 8: 16}","[3, 5, 8, 16]",3551816164
Li5BO4,mp-768960,5.4569,2.02907649,0.04684860387500045,"{3: 5, 5: 1, 8: 4}","[3, 5, 8]",355184
CsLi5(BO3)2,mp-555082,3.9878,0.4275798,0.0,"{55: 1, 3: 5, 5: 2, 8: 6}","[3, 5, 8, 55]",355286551
Li5Fe2(BO4)2,mp-760269,2.0834,1.15774052,0.05944818367646931,"{3: 5, 26: 2, 5: 2, 8: 8}","[3, 5, 8, 26]",355288262
Na4Li5(BO3)3,mp-558455,3.8255,0.80016835,0.0,"{11: 4, 3: 5, 5: 3, 8: 9}","[3, 5, 8, 11]",355389114
Li5B4,mp-632822,0.0,2.64043383,0.3468927462962963,"{3: 5, 5: 4}","[3, 5]",3554
Li5Mn2Fe(BO3)4,mp-766508,0.0,2.26447549,0.04844396755207736,"{3: 5, 25: 2, 26: 1, 5: 4, 8: 12}","[3, 5, 8, 25, 26]",3554812252261
Li5Mn3(BO3)4,mp-766500,0.0,2.3005376,0.0401604481250013,"{3: 5, 25: 3, 5: 4, 8: 12}","[3, 5, 8, 25]",3554812253
Li5Fe3(BO3)4,mp-766507,1.6586999999999998,2.31363723,0.031328637812506166,"{3: 5, 26: 3, 5: 4, 8: 12}","[3, 5, 8, 26]",3554812263
Li5Co4(BO3)4,mp-1177143,0.7533999999999996,3.27673424,0.20310550079999778,"{3: 5, 27: 4, 5: 4, 8: 12}","[3, 5, 8, 27]",3554812274
Li5Cu4(BO3)4,mp-771172,0.0,2.83660706,0.13496579294999922,"{3: 5, 29: 4, 5: 4, 8: 12}","[3, 5, 8, 29]",3554812294
Li5Zn4(BO3)4,mp-756306,0.0,4.03055021,0.10920502754999983,"{3: 5, 30: 4, 5: 4, 8: 12}","[3, 5, 8, 30]",3554812304
Li5Bi2(BO3)4,mp-768452,0.0,1.35380755,0.041779421793474825,"{3: 5, 83: 2, 5: 4, 8: 12}","[3, 5, 8, 83]",3554812832
Li5Mn6(BO3)6,mp-780308,2.7241,2.18763002,0.028903764500002538,"{3: 5, 25: 6, 5: 6, 8: 18}","[3, 5, 8, 25]",3556818256
Li5Fe6(BO3)6,mp-766637,1.1128,2.1142813,0.025283452214285518,"{3: 5, 26: 6, 5: 6, 8: 18}","[3, 5, 8, 26]",3556818266
Li5B7S13,mp-532413,3.3927000000000005,6.04523788,0.0,"{3: 5, 5: 7, 16: 13}","[3, 5, 16]",35571613
Rb2Li5(BO2)7,mp-1020664,4.2036999999999995,0.3780953,0.007860332172624496,"{37: 2, 3: 5, 5: 7, 8: 14}","[3, 5, 8, 37]",3557814372
Cs2Li5(BO2)7,mp-1019607,3.9804999999999997,0.70037292,0.003907451617063629,"{55: 2, 3: 5, 5: 7, 8: 14}","[3, 5, 8, 55]",3557814552
Li5Ca9B7O21F2,mp-1197163,4.2,5.62989143,0.002138624220786589,"{3: 5, 20: 9, 5: 7, 8: 21, 9: 2}","[3, 5, 8, 9, 20]",355782192209
Li5Mn8(BO3)8,mp-777359,0.0,1.75384606,0.06057474394445528,"{3: 5, 25: 8, 5: 8, 8: 24}","[3, 5, 8, 25]",3558824258
Li5Fe8(BO3)8,mp-761198,1.1154000000000002,3.14211802,0.04452820759027887,"{3: 5, 26: 8, 5: 8, 8: 24}","[3, 5, 8, 26]",3558824268
Rb5Li6(BO2)11,mp-1020620,4.1483,0.06773566,0.005257921553034173,"{37: 5, 3: 6, 5: 11, 8: 22}","[3, 5, 8, 37]",36511822375
RbLi6B2O6F,mp-1195055,4.3533,0.38000446,0.0047132006249990255,"{37: 1, 3: 6, 5: 2, 8: 6, 9: 1}","[3, 5, 8, 9, 37]",36528691371
Li6Ti(BO3)3,mp-769458,0.025700000000000056,3.68187658,0.10102795874999426,"{3: 6, 22: 1, 5: 3, 8: 9}","[3, 5, 8, 22]",365389221
Li6V(BO3)3,mp-770782,0.0,3.43764893,0.06900678907894342,"{3: 6, 23: 1, 5: 3, 8: 9}","[3, 5, 8, 23]",365389231
Li6Cr(BO3)3,mp-772644,2.3399,0.8020252,0.08436201250000064,"{3: 6, 24: 1, 5: 3, 8: 9}","[3, 5, 8, 24]",365389241
Li6Mn(BO3)3,mp-772526,0.9733999999999999,0.47359316,0.06412514671051905,"{3: 6, 25: 1, 5: 3, 8: 9}","[3, 5, 8, 25]",365389251
Li6Fe(BO3)3,mp-772525,2.0524000000000004,0.88048279,0.07517703052631486,"{3: 6, 26: 1, 5: 3, 8: 9}","[3, 5, 8, 26]",365389261
Li6Y(BO3)3,mp-14704,4.7398,0.65583932,0.0,"{3: 6, 39: 1, 5: 3, 8: 9}","[3, 5, 8, 39]",365389391
Li6B3SbO9,mp-769411,3.6036,2.30246085,0.059288548026319,"{3: 6, 5: 3, 51: 1, 8: 9}","[3, 5, 8, 51]",365389511
Li6Nd(BO3)3,mp-1198049,4.5791,0.96628343,0.0,"{3: 6, 60: 1, 5: 3, 8: 9}","[3, 5, 8, 60]",365389601
Li6Sm(BO3)3,mp-1211541,4.6432,5.10780579,0.0,"{3: 6, 62: 1, 5: 3, 8: 9}","[3, 5, 8, 62]",365389621
Li6Eu(BO3)3,mp-1211786,0.13160000000000005,0.68106716,0.02693527138158025,"{3: 6, 63: 1, 5: 3, 8: 9}","[3, 5, 8, 63]",365389631
Li6Gd(BO3)3,mp-16699,2.7416,0.50124436,0.0029604976315740217,"{3: 6, 64: 1, 5: 3, 8: 9}","[3, 5, 8, 64]",365389641
Li6Ho(BO3)3,mp-12160,4.5376,0.56708677,0.0,"{3: 6, 67: 1, 5: 3, 8: 9}","[3, 5, 8, 67]",365389671
Li6Er(BO3)3,mp-1211468,4.7625,5.24208837,0.0,"{3: 6, 68: 1, 5: 3, 8: 9}","[3, 5, 8, 68]",365389681
Li6Tm(BO3)3,mp-1211340,4.8029,5.31172076,0.0,"{3: 6, 69: 1, 5: 3, 8: 9}","[3, 5, 8, 69]",365389691
Li6Bi(BO3)3,mp-770280,3.8616,1.04685325,0.008981870789469326,"{3: 6, 83: 1, 5: 3, 8: 9}","[3, 5, 8, 83]",365389831
Li6Cu(B2O5)2,mp-1191302,1.0877000000000001,1.247423,0.01695900797619032,"{3: 6, 29: 1, 5: 4, 8: 10}","[3, 5, 8, 29]",3654810291
Li6V2B4SO16,mp-772590,1.9200000000000002,1.03054136,0.0874390862930925,"{3: 6, 23: 2, 5: 4, 16: 1, 8: 16}","[3, 5, 8, 16, 23]",3654816161232
Li6Mn2B4SO16,mp-831077,1.6433999999999997,0.877256,0.07921483856895861,"{3: 6, 25: 2, 5: 4, 16: 1, 8: 16}","[3, 5, 8, 16, 25]",3654816161252
Li6Fe2B4SO16,mp-770526,0.0,0.72561277,0.09923283674425942,"{3: 6, 26: 2, 5: 4, 16: 1, 8: 16}","[3, 5, 8, 16, 26]",3654816161262
Li6Sn2B4SO16,mp-769001,3.4699999999999998,1.60444823,0.06845825749999968,"{3: 6, 50: 2, 5: 4, 16: 1, 8: 16}","[3, 5, 8, 16, 50]",3654816161502
Li6Bi2B4SO16,mp-779482,0.13070000000000004,1.91101767,0.092580695948282,"{3: 6, 83: 2, 5: 4, 16: 1, 8: 16}","[3, 5, 8, 16, 83]",3654816161832
Li6B4O9,mp-1020024,4.8958,0.02971725,0.007038242236841796,"{3: 6, 5: 4, 8: 9}","[3, 5, 8]",365489
Li6MnFe5(BO3)6,mp-779627,2.8379000000000003,1.92934451,0.0056252979861097785,"{3: 6, 25: 1, 26: 5, 5: 6, 8: 18}","[3, 5, 8, 25, 26]",3656818251265
Li6Mn5Fe(BO3)6,mp-778872,2.3787,1.95911794,0.0023301725694366837,"{3: 6, 25: 5, 26: 1, 5: 6, 8: 18}","[3, 5, 8, 25, 26]",3656818255261
Li7B18O,mp-2468835,0.0,2.39642681,0.029330214096150442,"{3: 7, 5: 18, 8: 1}","[3, 5, 8]",3751881
Li7Bi(BO4)2,mp-768747,2.1430000000000002,1.68108583,0.0981787840277768,"{3: 7, 83: 1, 5: 2, 8: 8}","[3, 5, 8, 83]",375288831
Li7Mn(BO3)3,mp-1222860,3.5681000000000003,4.26652109,0.0036715909999989194,"{3: 7, 25: 1, 5: 3, 8: 9}","[3, 5, 8, 25]",375389251
Li7Mn8(BO3)8,mp-779028,0.0,1.92064468,0.027431655159584345,"{3: 7, 25: 8, 5: 8, 8: 24}","[3, 5, 8, 25]",3758824258
Li7Fe8(BO3)8,mp-1176890,0.015199999999999658,3.56129132,0.01524322175530557,"{3: 7, 26: 8, 5: 8, 8: 24}","[3, 5, 8, 26]",3758824268
Li8B2O7,mp-768921,5.2822,1.18669977,0.06674397647059127,"{3: 8, 5: 2, 8: 7}","[3, 5, 8]",385287
Li8MnFe7(BO3)8,mp-1176839,3.299,1.70139652,0.0010686436979163716,"{3: 8, 25: 1, 26: 7, 5: 8, 8: 24}","[3, 5, 8, 25, 26]",3858824251267
Li8Mn3Fe5(BO3)8,mp-775252,2.6574,4.88497314,0.0033436283854149096,"{3: 8, 25: 3, 26: 5, 5: 8, 8: 24}","[3, 5, 8, 25, 26]",3858824253265
Li8Mn5Fe3(BO3)8,mp-778302,3.0728999999999997,4.86699184,0.004870333697911455,"{3: 8, 25: 5, 26: 3, 5: 8, 8: 24}","[3, 5, 8, 25, 26]",3858824255263
Li8Mn7Fe(BO3)8,mp-775268,2.9600000000000004,1.9984616,0.007009459010411057,"{3: 8, 25: 7, 26: 1, 5: 8, 8: 24}","[3, 5, 8, 25, 26]",3858824257261
Li9Cr4(BO3)8,mp-759279,0.5138,0.67901095,0.09105069077314187,"{3: 9, 24: 4, 5: 8, 8: 24}","[3, 5, 8, 24]",3958824244
Li9Mn4(BO3)8,mp-759917,0.6737,1.45387083,0.07936454837777784,"{3: 9, 25: 4, 5: 8, 8: 24}","[3, 5, 8, 25]",3958824254
Li9Fe4(BO3)8,mp-1176790,0.0,0.31741984,0.07518820382222113,"{3: 9, 26: 4, 5: 8, 8: 24}","[3, 5, 8, 26]",3958824264
MgBeB,mp-1221963,0.0,3.5035872,0.487961900833334,"{12: 1, 4: 1, 5: 1}","[4, 5, 12]",4151121
BeAlB,mp-4262,0.0,7.38446061,0.0,"{4: 1, 13: 1, 5: 1}","[4, 5, 13]",4151131
TiBeB,mp-1217018,0.0,5.59676446,0.0845739635185252,"{22: 1, 4: 1, 5: 1}","[4, 5, 22]",4151221
Be(B6C)2,mp-1104026,0.0,5.06321842,0.04111949645833679,"{4: 1, 5: 12, 6: 2}","[4, 5, 6]",4151262
BeCo2B,mp-1096558,0.24880000000000013,-3.47918274,3.03847169875,"{4: 1, 27: 2, 5: 1}","[4, 5, 27]",4151272
BeGeB,mp-631541,0.0,6.94465202,0.7640787847916668,"{4: 1, 32: 1, 5: 1}","[4, 5, 32]",4151321
ZrBeB,mp-1215258,0.0,4.81785215,0.007066213333334126,"{40: 1, 4: 1, 5: 1}","[4, 5, 40]",4151401
TaBeB,mp-1217960,0.0,6.6076901,0.0,"{73: 1, 4: 1, 5: 1}","[4, 5, 73]",4151731
BeReB,mp-631537,0.0,4.77616749,1.2495247475000006,"{4: 1, 75: 1, 5: 1}","[4, 5, 75]",4151751
BeBIr2,mp-1095722,0.0,-4.21099786,3.2145271466666667,"{4: 1, 5: 1, 77: 2}","[4, 5, 77]",4151772
BeBPt2,mp-1096043,0.07289999999999974,-4.68786826,2.1804926495208337,"{4: 1, 5: 1, 78: 2}","[4, 5, 78]",4151782
BeBO3,mp-1183422,0.0,5.77430245,1.6400017199166665,"{4: 1, 5: 1, 8: 3}","[4, 5, 8]",415183
BeAlBO3F2,mp-1247751,5.5792,-8.77860563,0.1862850393124953,"{4: 1, 13: 1, 5: 1, 8: 3, 9: 2}","[4, 5, 8, 9, 13]",41518392131
Y2BeAlBO7,mp-1216100,4.9749,2.54264617,0.0,"{39: 2, 4: 1, 13: 1, 5: 1, 8: 7}","[4, 5, 8, 13, 39]",415187131392
BeB2,mp-1009823,0.0,6.7721012,0.127193730069445,"{4: 1, 5: 2}","[4, 5]",4152
Mg2BeB2Ir5,mp-1105674,0.0,7.68906819,0.0,"{12: 2, 4: 1, 5: 2, 77: 5}","[4, 5, 12, 77]",4152122775
Sc2BeB2Ir5,mp-1208984,0.0,8.04843862,0.0,"{21: 2, 4: 1, 5: 2, 77: 5}","[4, 5, 21, 77]",4152212775
Be(BC)2,mp-569299,0.2171000000000003,4.554929,0.023824699333332866,"{4: 1, 5: 2, 6: 2}","[4, 5, 6]",415262
Na2BeB2O5,mp-16737,4.8657,0.3180331,0.0,"{11: 2, 4: 1, 5: 2, 8: 5}","[4, 5, 8, 11]",415285112
CaBeB2O5,mp-554315,5.822699999999999,2.09997398,0.004287166944422438,"{20: 1, 4: 1, 5: 2, 8: 5}","[4, 5, 8, 20]",415285201
SrBeB2O5,mp-1020654,5.3673,1.83052516,0.0,"{38: 1, 4: 1, 5: 2, 8: 5}","[4, 5, 8, 38]",415285381
NaBe(BO2)3,mp-1020624,4.931,-0.45166291,0.001195700530375099,"{11: 1, 4: 1, 5: 3, 8: 6}","[4, 5, 8, 11]",415386111
Be(BO2)4,mp-727023,0.0,-0.93451972,0.14234446833333614,"{4: 1, 5: 4, 8: 8}","[4, 5, 8]",415488
Sr3BeB6O13,mp-1020637,4.7944,1.65213127,0.0,"{38: 3, 4: 1, 5: 6, 8: 13}","[4, 5, 8, 38]",4156813383
Be2B,mp-1432,0.0,4.79997553,0.054649395972222514,"{4: 2, 5: 1}","[4, 5]",4251
MgBe2B,mp-631564,0.0,5.75036988,0.7392046218749999,"{12: 1, 4: 2, 5: 1}","[4, 5, 12]",4251121
Be2BO3F,mp-554023,6.462899999999999,-0.8618101,0.0,"{4: 2, 5: 1, 8: 3, 9: 1}","[4, 5, 8, 9]",42518391
NaBe2BO3F2,mp-556865,6.0856,-1.12661343,0.005552273055560164,"{11: 1, 4: 2, 5: 1, 8: 3, 9: 2}","[4, 5, 8, 9, 11]",42518392111
KBe2BO3F2,mp-6870,6.0524000000000004,-1.45261855,0.0,"{19: 1, 4: 2, 5: 1, 8: 3, 9: 2}","[4, 5, 8, 9, 19]",42518392191
RbBe2BO3F2,mp-7323,6.0052,-1.36922469,0.0,"{37: 1, 4: 2, 5: 1, 8: 3, 9: 2}","[4, 5, 8, 9, 37]",42518392371
CsBe2BO3F2,mp-553342,5.8834,-0.71730473,0.0,"{55: 1, 4: 2, 5: 1, 8: 3, 9: 2}","[4, 5, 8, 9, 55]",42518392551
Be2BO4,mp-736232,0.1268,0.29736294,0.08268211154762017,"{4: 2, 5: 1, 8: 4}","[4, 5, 8]",425184
Be2BO5,mp-1079124,0.0,-0.43328575,0.32236409338541616,"{4: 2, 5: 1, 8: 5}","[4, 5, 8]",425185
BaBe2(BO2)2,mp-1214878,0.2307999999999999,3.02576157,0.4733056211481461,"{56: 1, 4: 2, 5: 2, 8: 4}","[4, 5, 8, 56]",425284561
SrBe2(BO3)2,mp-558981,5.3547,1.19219894,0.007696537272724235,"{38: 1, 4: 2, 5: 2, 8: 6}","[4, 5, 8, 38]",425286381
BaBe2(BO3)2,mp-555070,5.3821,1.27251551,0.0,"{56: 1, 4: 2, 5: 2, 8: 6}","[4, 5, 8, 56]",425286561
NaCaBe2B2O6F,mp-1193627,5.0458,1.07035461,0.0036189919230809053,"{11: 1, 20: 1, 4: 2, 5: 2, 8: 6, 9: 1}","[4, 5, 8, 9, 11, 20]",42528691111201
Sr2Be2B2O7,mp-556498,4.0798000000000005,1.65990551,0.005458277115380383,"{38: 2, 4: 2, 5: 2, 8: 7}","[4, 5, 8, 38]",425287382
KBe2B3O7,mp-1193116,5.5029,-0.09944659,0.0007822135042587774,"{19: 1, 4: 2, 5: 3, 8: 7}","[4, 5, 8, 19]",425387191
RbBe2B3O7,mp-1020621,4.5047,-0.09262999,0.014265438835433741,"{37: 1, 4: 2, 5: 3, 8: 7}","[4, 5, 8, 37]",425387371
YBe2B5O11,mp-1020740,4.9403,1.01327099,0.0,"{39: 1, 4: 2, 5: 5, 8: 11}","[4, 5, 8, 39]",4255811391
GdBe2B5O11,mp-1195691,0.31020000000000003,1.30534746,0.0,"{64: 1, 4: 2, 5: 5, 8: 11}","[4, 5, 8, 64]",4255811641
Be3B3P6N3O25,mp-1214690,0.020100000000000007,-0.60663135,0.5613399951562466,"{4: 3, 5: 3, 15: 6, 7: 3, 8: 25}","[4, 5, 7, 8, 15]",435373825156
Na3Be3B3P6O25,mp-1211231,1.0103,0.75977776,0.07749354837500011,"{11: 3, 4: 3, 5: 3, 15: 6, 8: 25}","[4, 5, 8, 11, 15]",4353825113156
K3Be3B3P6O25,mp-1212145,0.0020000000000000018,0.65535561,0.04804266031249593,"{19: 3, 4: 3, 5: 3, 15: 6, 8: 25}","[4, 5, 8, 15, 19]",4353825156193
NaSr3Be3B3O9F4,mp-1192032,4.7554,1.08836928,0.03749146184783303,"{11: 1, 38: 3, 4: 3, 5: 3, 8: 9, 9: 4}","[4, 5, 8, 9, 11, 38]",43538994111383
Be4B,mp-27757,0.0,5.44176915,0.0,"{4: 4, 5: 1}","[4, 5]",4451
CsBe4Al4(B3O7)4,mp-540725,0.06400000000000006,,0.074682914015467,"{55: 1, 4: 4, 13: 4, 5: 12, 8: 28}","[4, 5, 8, 13, 55]",44512828134551
Be4B25,mp-1227634,0.0,6.84281784,0.21331309017241296,"{4: 4, 5: 25}","[4, 5]",44525
RbBe4(BO3)3,mp-556393,5.1736,0.2634471,0.0,"{37: 1, 4: 4, 5: 3, 8: 9}","[4, 5, 8, 37]",445389371
CsBe4(BO3)3,mp-1019718,4.9398,0.6731749,0.0,"{55: 1, 4: 4, 5: 3, 8: 9}","[4, 5, 8, 55]",445389551
Na2Be4B4O11,mp-1020144,4.983300000000001,0.80965338,0.0017968795238214597,"{11: 2, 4: 4, 5: 4, 8: 11}","[4, 5, 8, 11]",4454811112
U4Be51B,mp-1216800,0.0,5.66565038,0.0,"{92: 4, 4: 51, 5: 1}","[4, 5, 92]",45151924
CsNa2Be6(BO3)5,mp-866613,4.5093,0.56914838,0.0005435531034470031,"{55: 1, 11: 2, 4: 6, 5: 5, 8: 15}","[4, 5, 8, 11, 55]",4655815112551
B,mp-160,1.4333999999999998,6.15041714,0.0,{5: 1},[5],51
V3B100,mp-1216517,0.0,4.76856141,0.03279329386731522,"{23: 3, 5: 100}","[5, 23]",5100233
Mg4AlB10,mp-1222150,0.0,6.86156305,0.0,"{12: 4, 13: 1, 5: 10}","[5, 12, 13]",510124131
La3Co29(Si2B5)2,mp-6084,0.0,7.33257936,0.0,"{57: 3, 27: 29, 14: 4, 5: 10}","[5, 14, 27, 57]",5101442729573
Ce3Co29(Si2B5)2,mp-16083,0.0,7.22589716,0.0,"{58: 3, 27: 29, 14: 4, 5: 10}","[5, 14, 27, 58]",5101442729583
Pr3Co29(Si2B5)2,mp-16084,0.0037000000000002586,,0.0,"{59: 3, 27: 29, 14: 4, 5: 10}","[5, 14, 27, 59]",5101442729593
Nd3Co29(Si2B5)2,mp-16085,0.0,6.37710155,0.0,"{60: 3, 27: 29, 14: 4, 5: 10}","[5, 14, 27, 60]",5101442729603
Sm3Co29(Si2B5)2,mp-16086,0.011100000000000776,,0.0,"{62: 3, 27: 29, 14: 4, 5: 10}","[5, 14, 27, 62]",5101442729623
Gd3Co29(Si2B5)2,mp-680293,0.0,6.29867489,0.0,"{64: 3, 27: 29, 14: 4, 5: 10}","[5, 14, 27, 64]",5101442729643
Tb3Co29(Si2B5)2,mp-16088,0.010299999999999976,,0.0,"{65: 3, 27: 29, 14: 4, 5: 10}","[5, 14, 27, 65]",5101442729653
Dy3Co29(Si2B5)2,mp-758934,0.0,6.33423658,0.0,"{66: 3, 27: 29, 14: 4, 5: 10}","[5, 14, 27, 66]",5101442729663
Er3Co29(Si2B5)2,mp-21951,0.0,6.33665119,0.0,"{68: 3, 27: 29, 14: 4, 5: 10}","[5, 14, 27, 68]",5101442729683
Tm3Co29(Si2B5)2,mp-16092,0.012199999999999989,,0.0,"{69: 3, 27: 29, 14: 4, 5: 10}","[5, 14, 27, 69]",5101442729693
Lu3Co29(Si2B5)2,mp-16093,0.012199999999999989,,0.0,"{71: 3, 27: 29, 14: 4, 5: 10}","[5, 14, 27, 71]",5101442729713
Th2FeB10,mp-21902,0.0,8.06567571,0.0,"{90: 2, 26: 1, 5: 10}","[5, 26, 90]",510261902
Th2CoB10,mp-22548,0.0,8.32055126,0.0,"{90: 2, 27: 1, 5: 10}","[5, 27, 90]",510271902
Y2NiB10,mp-1207701,0.0,6.37663633,0.0,"{39: 2, 28: 1, 5: 10}","[5, 28, 39]",510281392
Ce2NiB10,mp-21169,0.0,8.32256215,0.0,"{58: 2, 28: 1, 5: 10}","[5, 28, 58]",510281582
Pr2NiB10,mp-1209651,0.0,6.34652018,0.0,"{59: 2, 28: 1, 5: 10}","[5, 28, 59]",510281592
Nd2NiB10,mp-22471,0.0,6.13821354,0.0,"{60: 2, 28: 1, 5: 10}","[5, 28, 60]",510281602
Sm2NiB10,mp-1208882,0.0,6.22045501,0.0,"{62: 2, 28: 1, 5: 10}","[5, 28, 62]",510281622
Gd2NiB10,mp-1212642,0.0,5.92146443,0.0,"{64: 2, 28: 1, 5: 10}","[5, 28, 64]",510281642
Tb2NiB10,mp-1208523,0.0,6.31907102,0.0,"{65: 2, 28: 1, 5: 10}","[5, 28, 65]",510281652
Dy2NiB10,mp-1213050,0.0,6.2848406,0.0,"{66: 2, 28: 1, 5: 10}","[5, 28, 66]",510281662
Ho2NiB10,mp-1212324,0.0,6.2856517,0.005325419489180305,"{67: 2, 28: 1, 5: 10}","[5, 28, 67]",510281672
Th2NiB10,mp-20109,0.0,8.56366987,0.0,"{90: 2, 28: 1, 5: 10}","[5, 28, 90]",510281902
Y3Ni19B10,mp-1199550,0.0,7.76053573,0.010366880931498734,"{39: 3, 28: 19, 5: 10}","[5, 28, 39]",5102819393
Gd3Ni19B10,mp-866774,0.0,7.75116946,0.01627791369495757,"{64: 3, 28: 19, 5: 10}","[5, 28, 64]",5102819643
Tb3Ni19B10,mp-1197368,0.0,7.68725114,0.011141990324525786,"{65: 3, 28: 19, 5: 10}","[5, 28, 65]",5102819653
Dy3Ni19B10,mp-1197227,0.0,7.7839701,0.008812708571434236,"{66: 3, 28: 19, 5: 10}","[5, 28, 66]",5102819663
Ho3Ni19B10,mp-28151,0.0,7.6754553,0.15743114431640493,"{67: 3, 28: 19, 5: 10}","[5, 28, 67]",5102819673
Er3Ni19B10,mp-1201895,0.0,7.7370212,0.0013586714488624807,"{68: 3, 28: 19, 5: 10}","[5, 28, 68]",5102819683
Sr5(B5Rh7)2,mp-28706,0.0,3.87782115,0.0,"{38: 5, 5: 10, 45: 14}","[5, 38, 45]",5103854514
Na5Sr2B10(CO13)2,mp-1210602,0.0,0.45844679,0.06948254847222302,"{11: 5, 38: 2, 5: 10, 6: 2, 8: 26}","[5, 6, 8, 11, 38]",51062826115382
Tb4YNi10(B2C)5,mp-1217659,0.0,6.5876984,0.007148895999998572,"{65: 4, 39: 1, 28: 10, 5: 10, 6: 5}","[5, 6, 28, 39, 65]",510652810391654
Er4LuNi10(B2C)5,mp-1225907,0.0,6.69158912,0.008186062333334299,"{68: 4, 71: 1, 28: 10, 5: 10, 6: 5}","[5, 6, 28, 68, 71]",510652810684711
Cs2Na2B10O17,mp-559557,4.7124999999999995,0.39384728,0.0,"{55: 2, 11: 2, 5: 10, 8: 17}","[5, 8, 11, 55]",510817112552
Na2Tl2B10O17,mp-554657,4.1036,0.58967095,0.0,"{11: 2, 81: 2, 5: 10, 8: 17}","[5, 8, 11, 81]",510817112812
Cs2K2B10O17,mp-1200330,4.6216,0.05848816,0.0,"{55: 2, 19: 2, 5: 10, 8: 17}","[5, 8, 19, 55]",510817192552
Ba2B10O17,mp-1019522,5.6719,0.93205944,0.0021536630387437583,"{56: 2, 5: 10, 8: 17}","[5, 8, 56]",510817562
Ba4NaB10Cl(O9F)2,mp-1199057,5.2856,0.86287662,0.005352624999981792,"{56: 4, 11: 1, 5: 10, 17: 1, 8: 18, 9: 2}","[5, 8, 9, 11, 17, 56]",51081892111171564
NaB10Pb4Cl2O19,mp-1221108,1.2992,3.88427482,0.06007736163194277,"{11: 1, 5: 10, 82: 4, 17: 2, 8: 19}","[5, 8, 11, 17, 82]",510819111172824
Ba4B10Cl2O19,mp-1194958,0.0,0.68187501,0.11663459950892552,"{56: 4, 5: 10, 17: 2, 8: 19}","[5, 8, 17, 56]",510819172564
B10Pb4Cl2O19,mp-1195990,0.4469000000000001,2.00885268,0.054551373439153394,"{5: 10, 82: 4, 17: 2, 8: 19}","[5, 8, 17, 82]",510819172824
CaLa2B10O19,mp-560622,4.3132,2.31328617,0.0,"{20: 1, 57: 2, 5: 10, 8: 19}","[5, 8, 20, 57]",510819201572
B10Pb3O20,mp-1182647,0.2968000000000002,2.23859132,0.0448827645454557,"{5: 10, 82: 3, 8: 20}","[5, 8, 82]",510820823
La4B10O21,mp-1019894,4.139400000000001,4.64196452,0.012671912942856522,"{57: 4, 5: 10, 8: 21}","[5, 8, 57]",510821574
Pr4B10O21,mp-559104,4.990399999999999,3.06765408,0.012198551785697731,"{59: 4, 5: 10, 8: 21}","[5, 8, 59]",510821594
B10Pb4O21,mp-1203744,0.10580000000000012,1.6889452,0.10048955233331736,"{5: 10, 82: 4, 8: 21}","[5, 8, 82]",510821824
B10(Pb2O7)3,mp-27184,3.259,2.79441138,0.0,"{5: 10, 82: 6, 8: 21}","[5, 8, 82]",510821826
Bi6B10O21,mp-768871,1.1879999999999997,3.68628604,0.10162720391891877,"{83: 6, 5: 10, 8: 21}","[5, 8, 83]",510821836
KU2(B5O12)2,mp-1201877,0.19599999999999998,0.11543086,0.12625640423424755,"{19: 1, 92: 2, 5: 10, 8: 24}","[5, 8, 19, 92]",510824191922
Ca5TiSn4(BO3)10,mp-1227225,3.0919999999999996,2.35734901,0.005211213000012371,"{20: 5, 22: 1, 50: 4, 5: 10, 8: 30}","[5, 8, 20, 22, 50]",510830205221504
NaB,mp-1056860,0.0,0.66173498,1.8922903892155176,"{11: 1, 5: 1}","[5, 11]",51111
NaMg14B,mp-1099094,0.0,3.35812258,0.2269882492605877,"{11: 1, 12: 14, 5: 1}","[5, 11, 12]",511111214
NaMg6B,mp-1017341,0.0,3.28297721,0.4552119242825734,"{11: 1, 12: 6, 5: 1}","[5, 11, 12]",51111126
K2NaBP2,mp-567836,1.771,1.29638717,0.0,"{19: 2, 11: 1, 5: 1, 15: 2}","[5, 11, 15, 19]",51111152192
NaBS2,mp-15011,2.5684,1.56138891,0.008983460416668088,"{11: 1, 5: 1, 16: 2}","[5, 11, 16]",51111162
NaBPt3,mp-28614,0.0,5.63597083,0.0,"{11: 1, 5: 1, 78: 3}","[5, 11, 78]",51111783
Na3B,mp-1186020,0.0,1.49574292,0.8574022788318967,"{11: 3, 5: 1}","[5, 11]",51113
Na3BP2,mp-29370,1.8450999999999997,1.37191348,0.02443457750000011,"{11: 3, 5: 1, 15: 2}","[5, 11, 15]",51113152
Na3BS3,mp-29976,2.5824000000000003,1.38134516,0.0,"{11: 3, 5: 1, 16: 3}","[5, 11, 16]",51113163
Na8Zr6BBr20,mp-1210285,0.0,2.79385765,0.0,"{11: 8, 40: 6, 5: 1, 35: 20}","[5, 11, 35, 40]",511183520406
MgScB,mp-1100394,0.1575000000000002,3.51753013,0.33690561833333277,"{12: 1, 21: 1, 5: 1}","[5, 12, 21]",51121211
MgNi3B,mp-1206415,0.0,6.60567163,0.0432989271553037,"{12: 1, 28: 3, 5: 1}","[5, 12, 28]",51121283