formula,material_id,band_gap,efermi,energy_above_hull,comp_atoms,sorted_keys_comp_atoms,comp_number
LaB2Rh3,mp-3465,0.0,8.15320733,0.01761287133332523,"{57: 1, 5: 2, 45: 3}","[5, 45, 57]",52453571
CeB2Rh3,mp-5757,0.0,7.83489014,0.0,"{58: 1, 5: 2, 45: 3}","[5, 45, 58]",52453581
PrB2Rh3,mp-5369,0.0,6.53354547,0.0,"{59: 1, 5: 2, 45: 3}","[5, 45, 59]",52453591
NdB2Rh3,mp-3055,0.0,6.2086553,0.0,"{60: 1, 5: 2, 45: 3}","[5, 45, 60]",52453601
SmB2Rh3,mp-2947,0.0,6.05501445,0.0,"{62: 1, 5: 2, 45: 3}","[5, 45, 62]",52453621
EuB2Rh3,mp-21127,0.0,6.07415282,0.0,"{63: 1, 5: 2, 45: 3}","[5, 45, 63]",52453631
GdB2Rh3,mp-22117,0.0,5.78733134,0.0,"{64: 1, 5: 2, 45: 3}","[5, 45, 64]",52453641
TbB2Rh3,mp-1072051,0.0,6.2679199,0.002203510476181947,"{65: 1, 5: 2, 45: 3}","[5, 45, 65]",52453651
DyB2Rh3,mp-1025143,0.0,6.12924157,0.006018859901955054,"{66: 1, 5: 2, 45: 3}","[5, 45, 66]",52453661
HoB2Rh3,mp-1025027,0.0,6.10299174,0.008223444754896114,"{67: 1, 5: 2, 45: 3}","[5, 45, 67]",52453671
ErB2Rh3,mp-5678,0.0,6.10035034,0.012205608529407108,"{68: 1, 5: 2, 45: 3}","[5, 45, 68]",52453681
TmB2Rh3,mp-1076960,0.0,6.08181945,0.0156775040833379,"{69: 1, 5: 2, 45: 3}","[5, 45, 69]",52453691
LuB2Rh3,mp-1025024,0.0,6.05882974,0.024255737333337635,"{71: 1, 5: 2, 45: 3}","[5, 45, 71]",52453711
PuB2Rh3,mp-1024968,0.0,8.89100619,0.0,"{94: 1, 5: 2, 45: 3}","[5, 45, 94]",52453941
Ba3SmB24,mp-1228060,0.0,5.11136439,0.0,"{56: 3, 62: 1, 5: 24}","[5, 56, 62]",524563621
Sn5(BRh3)2,mp-30060,0.0,8.36975957,0.0,"{50: 5, 5: 2, 45: 6}","[5, 45, 50]",52456505
La(CeB8)3,mp-1223276,0.0,8.17159848,0.00040736392857176895,"{57: 1, 58: 3, 5: 24}","[5, 57, 58]",524571583
La(SmB8)3,mp-1223255,0.0,7.03754636,0.0019278764285743932,"{57: 1, 62: 3, 5: 24}","[5, 57, 62]",524571623
Pr16Re25B24,mp-1220630,0.0,5.90845118,0.0352548914769244,"{59: 16, 75: 25, 5: 24}","[5, 59, 75]",52459167525
Mg2B24C,mp-568556,2.4909,5.67037444,0.0,"{12: 2, 5: 24, 6: 1}","[5, 6, 12]",52461122
B2Pd5,mp-2617,0.0,5.22222431,0.008754007857142199,"{5: 2, 46: 5}","[5, 46]",52465
AgB2,mp-12062,0.0,5.46587824,0.5238218650000004,"{47: 1, 5: 2}","[5, 47]",52471
B24N4O,mp-1182541,0.5870999999999995,5.93908571,0.4826085206609205,"{5: 24, 7: 4, 8: 1}","[5, 7, 8]",5247481
CdB2,mp-1072852,0.0,0.47643351,2.5725911972222217,"{48: 1, 5: 2}","[5, 48]",52481
NaB24S6(Br2O)12,mp-1197248,0.0,-0.5955176,0.7045417668122917,"{11: 1, 5: 24, 16: 6, 35: 24, 8: 12}","[5, 8, 11, 16, 35]",5248121111663524
Sn5(BIr3)2,mp-28998,0.0,9.50562458,0.0,"{50: 5, 5: 2, 77: 6}","[5, 50, 77]",52505776
Ba(BIr)2,mp-12073,0.0,5.39497764,0.0,"{56: 1, 5: 2, 77: 2}","[5, 56, 77]",52561772
La(BOs)2,mp-1095136,0.0,7.5956437,0.0,"{57: 1, 5: 2, 76: 2}","[5, 57, 76]",52571762
La(BIr)2,mp-1211813,0.0,8.63531257,0.2853606039999992,"{57: 1, 5: 2, 77: 2}","[5, 57, 77]",52571772
LaB2Ir3,mp-10112,0.0,9.57934318,0.0,"{57: 1, 5: 2, 77: 3}","[5, 57, 77]",52571773
Ce(BOs)2,mp-1080734,0.0,7.44706327,0.0,"{58: 1, 5: 2, 76: 2}","[5, 58, 76]",52581762
Ce(BIr)2,mp-8680,0.0,8.38779743,0.0,"{58: 1, 5: 2, 77: 2}","[5, 58, 77]",52581772
CeB2Ir3,mp-11593,0.0,9.24853872,0.0,"{58: 1, 5: 2, 77: 3}","[5, 58, 77]",52581773
Ce2B2Ir5,mp-30898,0.0,9.27794156,0.0,"{58: 2, 5: 2, 77: 5}","[5, 58, 77]",52582775
Pr(BOs)2,mp-975738,0.0,5.63933995,0.0,"{59: 1, 5: 2, 76: 2}","[5, 59, 76]",52591762
Pr(BIr)2,mp-1080104,0.0,6.67918501,0.0,"{59: 1, 5: 2, 77: 2}","[5, 59, 77]",52591772
PrB2Ir3,mp-11594,0.0,7.66297727,0.0,"{59: 1, 5: 2, 77: 3}","[5, 59, 77]",52591773
Nd(BOs)2,mp-1080515,0.0,5.58433202,0.0,"{60: 1, 5: 2, 76: 2}","[5, 60, 76]",52601762
Nd(BIr)2,mp-1078948,0.0,6.62942859,0.0,"{60: 1, 5: 2, 77: 2}","[5, 60, 77]",52601772
NdB2Ir3,mp-1025068,0.0,7.70520736,0.0,"{60: 1, 5: 2, 77: 3}","[5, 60, 77]",52601773
ScB2C,mp-8597,0.0,6.6976373,0.053612489062500934,"{21: 1, 5: 2, 6: 1}","[5, 6, 21]",5261211
YCo2B2C,mp-1025070,0.0,5.52487902,0.027355555416661126,"{39: 1, 27: 2, 5: 2, 6: 1}","[5, 6, 27, 39]",5261272391
CeCo2B2C,mp-1025095,0.0,7.43145145,0.0,"{58: 1, 27: 2, 5: 2, 6: 1}","[5, 6, 27, 58]",5261272581
PrCo2B2C,mp-12985,0.0,5.42815015,0.05984807805554482,"{59: 1, 27: 2, 5: 2, 6: 1}","[5, 6, 27, 59]",5261272591
GdCo2B2C,mp-1077521,0.0,5.34017662,0.02211640708333995,"{64: 1, 27: 2, 5: 2, 6: 1}","[5, 6, 27, 64]",5261272641
TbCo2B2C,mp-1024963,0.0,5.55075556,0.024821845416656885,"{65: 1, 27: 2, 5: 2, 6: 1}","[5, 6, 27, 65]",5261272651
TmCo2B2C,mp-1071818,0.0,5.45044231,0.027345422777779405,"{69: 1, 27: 2, 5: 2, 6: 1}","[5, 6, 27, 69]",5261272691
YNi2B2C,mp-6576,0.0,6.59196594,0.0,"{39: 1, 28: 2, 5: 2, 6: 1}","[5, 6, 28, 39]",5261282391
LaNi2B2C,mp-568083,0.0,8.52996184,0.0,"{57: 1, 28: 2, 5: 2, 6: 1}","[5, 6, 28, 57]",5261282571
CeNi2B2C,mp-10860,0.0,8.3589437,0.0,"{58: 1, 28: 2, 5: 2, 6: 1}","[5, 6, 28, 58]",5261282581
PrNi2B2C,mp-6140,0.0,6.44016682,0.0,"{59: 1, 28: 2, 5: 2, 6: 1}","[5, 6, 28, 59]",5261282591
NdNi2B2C,mp-6102,0.0,6.41707374,0.0,"{60: 1, 28: 2, 5: 2, 6: 1}","[5, 6, 28, 60]",5261282601
SmNi2B2C,mp-9220,0.0,6.2833994,0.4823865541071566,"{62: 1, 28: 2, 5: 2, 6: 1}","[5, 6, 28, 62]",5261282621
EuNi2B2C,mp-21064,0.0,5.90023744,0.0,"{63: 1, 28: 2, 5: 2, 6: 1}","[5, 6, 28, 63]",5261282631
GdNi2B2C,mp-20728,0.0,6.52116074,0.0,"{64: 1, 28: 2, 5: 2, 6: 1}","[5, 6, 28, 64]",5261282641
TbNi2B2C,mp-6092,0.0,6.53355507,0.0,"{65: 1, 28: 2, 5: 2, 6: 1}","[5, 6, 28, 65]",5261282651
DyNi2B2C,mp-6223,0.0,6.52463097,0.0,"{66: 1, 28: 2, 5: 2, 6: 1}","[5, 6, 28, 66]",5261282661
HoNi2B2C,mp-6646,0.0,6.48712228,0.12991175364583274,"{67: 1, 28: 2, 5: 2, 6: 1}","[5, 6, 28, 67]",5261282671
ErNi2B2C,mp-6098,0.0,6.50322201,0.0,"{68: 1, 28: 2, 5: 2, 6: 1}","[5, 6, 28, 68]",5261282681
TmNi2B2C,mp-6754,0.0,6.4878516,0.0,"{69: 1, 28: 2, 5: 2, 6: 1}","[5, 6, 28, 69]",5261282691
LuNi2B2C,mp-6544,0.0,6.50267042,0.0,"{71: 1, 28: 2, 5: 2, 6: 1}","[5, 6, 28, 71]",5261282711
ThNi2B2C,mp-1025034,0.0,8.2112295,0.0,"{90: 1, 28: 2, 5: 2, 6: 1}","[5, 6, 28, 90]",5261282901
UNi2B2C,mp-1025123,0.0,9.7541983,0.0,"{92: 1, 28: 2, 5: 2, 6: 1}","[5, 6, 28, 92]",5261282921
Cu2B2C,mp-2371187,0.0,2.71249574,0.6960494375833335,"{29: 2, 5: 2, 6: 1}","[5, 6, 29]",5261292
YB2C,mp-9880,0.0,6.08567105,0.0,"{39: 1, 5: 2, 6: 1}","[5, 6, 39]",5261391
YB2Rh2C,mp-12737,0.0,5.89998715,0.004472498749995779,"{39: 1, 5: 2, 45: 2, 6: 1}","[5, 6, 39, 45]",5261391452
YB2Pd2C,mp-1024989,0.0,5.46253183,0.06608804960648218,"{39: 1, 5: 2, 46: 2, 6: 1}","[5, 6, 39, 46]",5261391462
LaB2Rh2C,mp-6794,0.0,7.71578712,0.0,"{57: 1, 5: 2, 45: 2, 6: 1}","[5, 6, 45, 57]",5261452571
CeB2Rh2C,mp-6191,0.0,7.51287101,0.0,"{58: 1, 5: 2, 45: 2, 6: 1}","[5, 6, 45, 58]",5261452581
PrB2Rh2C,mp-568924,0.0,5.78652423,0.0,"{59: 1, 5: 2, 45: 2, 6: 1}","[5, 6, 45, 59]",5261452591
NdB2Rh2C,mp-569294,0.0,5.73392555,0.0,"{60: 1, 5: 2, 45: 2, 6: 1}","[5, 6, 45, 60]",5261452601
SmB2Rh2C,mp-567077,0.0,5.62787813,0.0,"{62: 1, 5: 2, 45: 2, 6: 1}","[5, 6, 45, 62]",5261452621
GdB2Rh2C,mp-19756,0.0,5.61938175,0.0,"{64: 1, 5: 2, 45: 2, 6: 1}","[5, 6, 45, 64]",5261452641
TbB2Rh2C,mp-12736,0.0,5.83954003,0.008204253750005108,"{65: 1, 5: 2, 45: 2, 6: 1}","[5, 6, 45, 65]",5261452651
DyB2Rh2C,mp-571041,0.0,5.83590742,0.017427816250003225,"{66: 1, 5: 2, 45: 2, 6: 1}","[5, 6, 45, 66]",5261452661
HoB2Rh2C,mp-567969,0.0,5.79439905,0.02960039660714653,"{67: 1, 5: 2, 45: 2, 6: 1}","[5, 6, 45, 67]",5261452671
ErB2Rh2C,mp-6982,0.0,5.82567596,0.04090688101190931,"{68: 1, 5: 2, 45: 2, 6: 1}","[5, 6, 45, 68]",5261452681
ThB2Rh2C,mp-1080399,0.0,7.51306634,0.0,"{90: 1, 5: 2, 45: 2, 6: 1}","[5, 6, 45, 90]",5261452901
UB2Rh2C,mp-1025127,0.0,8.63966999,0.04161206154761743,"{92: 1, 5: 2, 45: 2, 6: 1}","[5, 6, 45, 92]",5261452921
LaB2Pd2C,mp-1024956,0.0,7.09632874,0.05851835875000155,"{57: 1, 5: 2, 46: 2, 6: 1}","[5, 6, 46, 57]",5261462571
CeB2Pd2C,mp-1206294,0.0,7.1404161,0.07755887597222344,"{58: 1, 5: 2, 46: 2, 6: 1}","[5, 6, 46, 58]",5261462581
ThB2Pd2C,mp-1025041,0.0,7.03258897,0.10538948819443394,"{90: 1, 5: 2, 46: 2, 6: 1}","[5, 6, 46, 90]",5261462901
La4B2CI5,mp-672196,0.0,5.82770769,0.001405972916669107,"{57: 4, 5: 2, 6: 1, 53: 5}","[5, 6, 53, 57]",5261535574
LaB2Ir2C,mp-5992,0.0,8.78891786,0.0,"{57: 1, 5: 2, 77: 2, 6: 1}","[5, 6, 57, 77]",5261571772
LaB2Pt2C,mp-9219,0.0,8.49456992,0.02460263924999495,"{57: 1, 5: 2, 78: 2, 6: 1}","[5, 6, 57, 78]",5261571782
CeB2C,mp-8667,0.0,8.25839534,0.0,"{58: 1, 5: 2, 6: 1}","[5, 6, 58]",5261581
CeB2Ir2C,mp-10964,0.0,8.54006001,0.0,"{58: 1, 5: 2, 77: 2, 6: 1}","[5, 6, 58, 77]",5261581772
CeB2Pt2C,mp-1024975,0.0,8.34432331,0.03329318347222099,"{58: 1, 5: 2, 78: 2, 6: 1}","[5, 6, 58, 78]",5261581782
PrB2Pt2C,mp-12986,0.0,6.75701252,0.03014938897223285,"{59: 1, 5: 2, 78: 2, 6: 1}","[5, 6, 59, 78]",5261591782
TbB2C,mp-15707,0.0,5.97631582,0.0,"{65: 1, 5: 2, 6: 1}","[5, 6, 65]",5261651
DyB2C,mp-15644,0.0,5.96357536,0.0,"{66: 1, 5: 2, 6: 1}","[5, 6, 66]",5261661
HoB2C,mp-15603,0.0,5.90880167,0.0,"{67: 1, 5: 2, 6: 1}","[5, 6, 67]",5261671
TmB2C,mp-15604,0.0,5.91758415,0.0,"{69: 1, 5: 2, 6: 1}","[5, 6, 69]",5261691
B2CN,mp-1079333,0.0,8.01110498,0.23981436255208521,"{5: 2, 6: 1, 7: 1}","[5, 6, 7]",526171
LuB2C,mp-1105800,0.0,5.98961248,0.0,"{71: 1, 5: 2, 6: 1}","[5, 6, 71]",5261711
B2CN2,mp-1228638,1.0153999999999996,9.84021694,0.4671741515000001,"{5: 2, 6: 1, 7: 2}","[5, 6, 7]",526172
ThB2Pt2C,mp-1072285,0.0,8.28392554,0.03363667874998999,"{90: 1, 5: 2, 78: 2, 6: 1}","[5, 6, 78, 90]",5261782901
ThB2C,mp-2997,0.0,8.38784042,0.0,"{90: 1, 5: 2, 6: 1}","[5, 6, 90]",5261901
UB2C,mp-569471,0.0,10.3149437,0.034558178124996175,"{92: 1, 5: 2, 6: 1}","[5, 6, 92]",5261921
NpB2C,mp-1095351,0.0,10.82110247,0.020350263958329506,"{93: 1, 5: 2, 6: 1}","[5, 6, 93]",5261931
PuB2C,mp-1095228,0.0,10.9816495,0.03753494421874848,"{94: 1, 5: 2, 6: 1}","[5, 6, 94]",5261941
SmB2,mp-10141,0.0,4.79366423,0.12776528233333195,"{62: 1, 5: 2}","[5, 62]",52621
Mg(BC)2,mp-3582,1.0168999999999997,4.83258861,0.0,"{12: 1, 5: 2, 6: 2}","[5, 6, 12]",5262121
Sm(BOs)2,mp-978678,0.0,5.46976968,0.0,"{62: 1, 5: 2, 76: 2}","[5, 62, 76]",52621762
Sm(BIr)2,mp-1079428,0.0,6.46612099,0.0,"{62: 1, 5: 2, 77: 2}","[5, 62, 77]",52621772
SmB2Ir3,mp-1080381,0.0,7.4619882,0.0,"{62: 1, 5: 2, 77: 3}","[5, 62, 77]",52621773
Ca(BC)2,mp-10289,0.4750999999999994,4.51458841,0.0,"{20: 1, 5: 2, 6: 2}","[5, 6, 20]",5262201
Sc(BC)2,mp-27693,0.0,5.99502122,0.044948152500001726,"{21: 1, 5: 2, 6: 2}","[5, 6, 21]",5262211
Y(BC)2,mp-1078866,0.0,6.43755361,0.0,"{39: 1, 5: 2, 6: 2}","[5, 6, 39]",5262391
ZrB2Mo3C2,mp-1215263,0.0,8.41001489,0.04571021453124935,"{40: 1, 5: 2, 42: 3, 6: 2}","[5, 6, 40, 42]",5262401423
TaB2Mo3C2,mp-1217964,0.0,9.00489925,0.006233564531250124,"{73: 1, 5: 2, 42: 3, 6: 2}","[5, 6, 42, 73]",5262423731
La(BC)2,mp-10852,0.0,8.77322625,0.0,"{57: 1, 5: 2, 6: 2}","[5, 6, 57]",5262571
Ce(BC)2,mp-20908,0.0,8.25102507,0.0,"{58: 1, 5: 2, 6: 2}","[5, 6, 58]",5262581
Pr(BC)2,mp-10853,0.0,6.15133042,0.0,"{59: 1, 5: 2, 6: 2}","[5, 6, 59]",5262591
Nd(BC)2,mp-5765,0.0,6.11441374,0.0,"{60: 1, 5: 2, 6: 2}","[5, 6, 60]",5262601
Sm(BC)2,mp-6916,0.0,6.00662803,0.0,"{62: 1, 5: 2, 6: 2}","[5, 6, 62]",5262621
Eu(BC)2,mp-1079886,0.0,5.08789171,0.027349974666666554,"{63: 1, 5: 2, 6: 2}","[5, 6, 63]",5262631
Gd(BC)2,mp-1080176,0.0,5.24867351,0.0,"{64: 1, 5: 2, 6: 2}","[5, 6, 64]",5262641
Tb(BC)2,mp-10854,0.0,6.32904791,0.0,"{65: 1, 5: 2, 6: 2}","[5, 6, 65]",5262651
Dy(BC)2,mp-2958,0.0,6.32878288,0.0,"{66: 1, 5: 2, 6: 2}","[5, 6, 66]",5262661
Ho(BC)2,mp-20410,0.0,6.29676941,0.0,"{67: 1, 5: 2, 6: 2}","[5, 6, 67]",5262671
Er(BC)2,mp-10856,0.0,6.34997087,0.0,"{68: 1, 5: 2, 6: 2}","[5, 6, 68]",5262681
Tm(BC)2,mp-10857,0.0,6.34963956,0.009051372000000057,"{69: 1, 5: 2, 6: 2}","[5, 6, 69]",5262691
Lu(BC)2,mp-10858,0.0,6.40694009,0.027539968500000178,"{71: 1, 5: 2, 6: 2}","[5, 6, 71]",5262711
Eu(BIr)2,mp-20976,0.0,5.91412659,0.0,"{63: 1, 5: 2, 77: 2}","[5, 63, 77]",52631772
Ce6B2(CBr)3,mp-570060,0.0,7.19185867,0.0,"{58: 6, 5: 2, 6: 3, 35: 3}","[5, 6, 35, 58]",5263353586
Eu3B2Pt7,mp-1102298,0.0,5.69310295,0.0,"{63: 3, 5: 2, 78: 7}","[5, 63, 78]",52633787
Tb2B2C3,mp-568624,0.0,5.86367898,0.07693541758928113,"{65: 2, 5: 2, 6: 3}","[5, 6, 65]",5263652
B2(CN2)3,mp-2455462,2.2986999999999997,-2.89854605,0.1760377443181813,"{5: 2, 6: 3, 7: 6}","[5, 6, 7]",526376
Th3B2C3,mp-3182,0.0,7.26089832,0.0030123221875051343,"{90: 3, 5: 2, 6: 3}","[5, 6, 90]",5263903
GdB2,mp-425,0.0,4.82162606,0.06832967733333106,"{64: 1, 5: 2}","[5, 64]",52641
GdB2Os,mp-1188331,0.0,6.18582809,0.0,"{64: 1, 5: 2, 76: 1}","[5, 64, 76]",52641761
Gd(BOs)2,mp-1079837,0.0,5.4809517,0.0,"{64: 1, 5: 2, 76: 2}","[5, 64, 76]",52641762
GdB2Ir3,mp-1077270,0.0,7.422112,0.0,"{64: 1, 5: 2, 77: 3}","[5, 64, 77]",52641773
Ca9B2(CCl2)4,mp-569892,1.3725999999999998,3.66048832,0.0,"{20: 9, 5: 2, 6: 4, 17: 8}","[5, 6, 17, 20]",5264178209
Mn23(BC2)2,mp-1222165,0.0,7.07554356,0.004885528997222721,"{25: 23, 5: 2, 6: 4}","[5, 6, 25]",52642523
TbB2,mp-965,0.0,4.97299234,0.0,"{65: 1, 5: 2}","[5, 65]",52651
TbB2Os,mp-1189495,0.0,6.36623056,0.0,"{65: 1, 5: 2, 76: 1}","[5, 65, 76]",52651761
Tb(BIr)2,mp-1079255,0.0,6.5924534,0.0,"{65: 1, 5: 2, 77: 2}","[5, 65, 77]",52651772
TbB2Ir3,mp-1025075,0.0,7.58797277,0.0,"{65: 1, 5: 2, 77: 3}","[5, 65, 77]",52651773
Pr5B2C5,mp-571510,0.0,4.35731863,0.010425566388888363,"{59: 5, 5: 2, 6: 5}","[5, 6, 59]",5265595
Dy5B2C5,mp-18628,0.0,4.39995869,0.0,"{66: 5, 5: 2, 6: 5}","[5, 6, 66]",5265665
DyB2,mp-2057,0.0,4.94812968,0.0,"{66: 1, 5: 2}","[5, 66]",52661
DyB2Os,mp-1189918,0.0,6.35798382,0.0,"{66: 1, 5: 2, 76: 1}","[5, 66, 76]",52661761
Dy(BIr)2,mp-1095029,0.0,6.60317394,0.0,"{66: 1, 5: 2, 77: 2}","[5, 66, 77]",52661772
DyB2Ir3,mp-1024993,0.0,7.55278318,0.0,"{66: 1, 5: 2, 77: 3}","[5, 66, 77]",52661773
Ca(BC3)2,mp-1227328,0.6533999999999995,3.66733049,0.029552975555557026,"{20: 1, 5: 2, 6: 6}","[5, 6, 20]",5266201
FeB2C6(O3F4)2,mp-555698,4.623200000000001,-2.89343772,0.31215618163043146,"{26: 1, 5: 2, 6: 6, 8: 6, 9: 8}","[5, 6, 8, 9, 26]",52668698261
HoB2,mp-2267,0.0,4.87867427,0.0,"{67: 1, 5: 2}","[5, 67]",52671
HoB2Os,mp-1189925,0.0,6.25400238,0.0,"{67: 1, 5: 2, 76: 1}","[5, 67, 76]",52671761
HoB2Ir3,mp-1072182,0.0,7.71205861,0.0,"{67: 1, 5: 2, 77: 3}","[5, 67, 77]",52671773
ErB2,mp-1774,0.0,4.91684029,0.0,"{68: 1, 5: 2}","[5, 68]",52681
ErB2Os,mp-1189333,0.0,6.28544668,0.0,"{68: 1, 5: 2, 76: 1}","[5, 68, 76]",52681761
ErB2Ir3,mp-5197,0.0,7.56145903,0.0,"{68: 1, 5: 2, 77: 3}","[5, 68, 77]",52681773
Na12B26O45,mp-1180710,4.581300000000001,0.76419403,0.009038583674699119,"{11: 12, 5: 26, 8: 45}","[5, 8, 11]",5268451112
CuB2(CN)8,mp-568532,0.8959999999999999,-1.64166193,0.49904564999999756,"{29: 1, 5: 2, 6: 8, 7: 8}","[5, 6, 7, 29]",526878291
ZnB2(CN)8,mp-569303,5.5259,-3.24443641,0.4414498130263116,"{30: 1, 5: 2, 6: 8, 7: 8}","[5, 6, 7, 30]",526878301
HgB2(CN)8,mp-567699,4.6143,-3.2806208,0.5208974119736824,"{80: 1, 5: 2, 6: 8, 7: 8}","[5, 6, 7, 80]",526878801
TmB2,mp-800,0.0,4.88110389,0.0,"{69: 1, 5: 2}","[5, 69]",52691
TmB2Os,mp-1188249,0.0,6.3290064,0.0,"{69: 1, 5: 2, 76: 1}","[5, 69, 76]",52691761
TmB2Ir3,mp-1077393,0.0,7.4991806,0.0,"{69: 1, 5: 2, 77: 3}","[5, 69, 77]",52691773
LuB2,mp-11219,0.0,4.95677884,0.0,"{71: 1, 5: 2}","[5, 71]",52711
B2NCl3,mp-1214908,4.3775,-1.29020075,0.06572316069444462,"{5: 2, 7: 1, 17: 3}","[5, 7, 17]",5271173
LuB2Os,mp-1189270,0.0,6.30360418,0.0,"{71: 1, 5: 2, 76: 1}","[5, 71, 76]",52711761
LuB2Os3,mp-2880,0.0,6.79519157,0.0795817800000016,"{71: 1, 5: 2, 76: 3}","[5, 71, 76]",52711763
LuB2Ir3,mp-1024990,0.0,7.47985893,0.0,"{71: 1, 5: 2, 77: 3}","[5, 71, 77]",52711773
HfB2,mp-1994,0.0,8.05107642,0.0,"{72: 1, 5: 2}","[5, 72]",52721
HfTaB2,mp-1224291,0.0,6.62510342,0.009947190833329955,"{72: 1, 73: 1, 5: 2}","[5, 72, 73]",52721731
Hf3B2Ir5,mp-22409,0.0,7.84357177,0.05379568150000047,"{72: 3, 5: 2, 77: 5}","[5, 72, 77]",52723775
Sr(BN)2,mp-1068850,3.4722,2.49187969,0.41503084719999883,"{38: 1, 5: 2, 7: 2}","[5, 7, 38]",5272381
Lu2B2N2O13,mp-1196028,0.1352,-1.15332196,0.15705132256578924,"{71: 2, 5: 2, 7: 2, 8: 13}","[5, 7, 8, 71]",5272813712
Hf9B2W3,mp-1224535,0.0,5.1800345,0.19079438928571335,"{72: 9, 5: 2, 74: 3}","[5, 72, 74]",52729743
TaB2,mp-1108,0.0,8.9825124,0.0,"{73: 1, 5: 2}","[5, 73]",52731
Ti4B2N3,mp-1217108,0.0,5.97868604,0.8028528866666669,"{22: 4, 5: 2, 7: 3}","[5, 7, 22]",5273224
Ta2B2Os,mp-1189186,0.0,7.92207459,0.00340387050000146,"{73: 2, 5: 2, 76: 1}","[5, 73, 76]",52732761
La3Ni2B2N3,mp-6114,0.0,8.85545947,0.004735910333343085,"{57: 3, 28: 2, 5: 2, 7: 3}","[5, 7, 28, 57]",5273282573
Ce3Ni2B2N3,mp-21136,0.0,8.78573151,0.0,"{58: 3, 28: 2, 5: 2, 7: 3}","[5, 7, 28, 58]",5273282583
Ta3B2,mp-13415,0.0,6.63103455,0.0,"{73: 3, 5: 2}","[5, 73]",52733
GaB2N3,mp-1245554,3.236,6.2638304,0.3523754366666676,"{31: 1, 5: 2, 7: 3}","[5, 7, 31]",5273311
B2W,mp-569803,0.0,8.40488089,0.0,"{5: 2, 74: 1}","[5, 74]",52741
Ca3(BN2)2,mp-1227905,2.4714000000000005,2.21216055,0.0,"{20: 3, 5: 2, 7: 4}","[5, 7, 20]",5274203
B2OsW2,mp-1188234,0.0,8.81657681,0.02968815999999208,"{5: 2, 76: 1, 74: 2}","[5, 74, 76]",52742761
Sr3(BN2)2,mp-1218347,1.9096,1.99280291,0.0,"{38: 3, 5: 2, 7: 4}","[5, 7, 38]",5274383
Ba3(BN2)2,mp-30905,2.5171,1.65712724,0.0,"{56: 3, 5: 2, 7: 4}","[5, 7, 56]",5274563
La3(BN2)2,mp-569935,0.0,8.65654764,0.0,"{57: 3, 5: 2, 7: 4}","[5, 7, 57]",5274573
Ce3(BN2)2,mp-3603,0.0,9.13755156,0.0,"{58: 3, 5: 2, 7: 4}","[5, 7, 58]",5274583
Pr3(BN2)2,mp-29587,0.0,5.22473927,0.0,"{59: 3, 5: 2, 7: 4}","[5, 7, 59]",5274593
Nd3(BN2)2,mp-29588,0.0,5.15221418,0.0,"{60: 3, 5: 2, 7: 4}","[5, 7, 60]",5274603
Ba4B2N4O,mp-553990,2.8023999999999996,1.96674257,0.011112585000002007,"{56: 4, 5: 2, 7: 4, 8: 1}","[5, 7, 8, 56]",527481564
ZnB2(NF2)4,mp-1199452,0.6404000000000001,-2.80280803,1.3592360163333312,"{30: 1, 5: 2, 7: 4, 9: 8}","[5, 7, 9, 30]",527498301
ReB2,mp-1773,0.0,7.77605134,0.0,"{75: 1, 5: 2}","[5, 75]",52751
PuReB2,mp-1106002,0.0,10.39781935,0.003865146818178289,"{94: 1, 75: 1, 5: 2}","[5, 75, 94]",52751941
La3B2N5,mp-29990,1.1710000000000012,7.72317911,0.0,"{57: 3, 5: 2, 7: 5}","[5, 7, 57]",5275573
La4B2N5,mp-1205775,0.0,8.88292298,0.0,"{57: 4, 5: 2, 7: 5}","[5, 7, 57]",5275574
Ce4B2N5,mp-31017,0.0,8.96409919,0.006411991818190188,"{58: 4, 5: 2, 7: 5}","[5, 7, 58]",5275584
B2Os,mp-2850,0.0,8.77705832,0.0,"{5: 2, 76: 1}","[5, 76]",52761
Mg(BN3)2,mp-1206547,0.0,5.52406295,3.442155343842593,"{12: 1, 5: 2, 7: 6}","[5, 7, 12]",5276121
PuB2Os,mp-1188931,0.0,10.84507944,0.0,"{94: 1, 5: 2, 76: 1}","[5, 76, 94]",52761941
Th(BOs)2,mp-1079803,0.0,7.34428033,0.0,"{90: 1, 5: 2, 76: 2}","[5, 76, 90]",52762901
UB2Os3,mp-10132,0.0,9.57223012,0.0,"{92: 1, 5: 2, 76: 3}","[5, 76, 92]",52763921
PuB2Os3,mp-1077278,0.0,9.58547806,0.2156817829166684,"{94: 1, 5: 2, 76: 3}","[5, 76, 94]",52763941
La5(BN3)2,mp-570499,0.0,8.80742774,0.0,"{57: 5, 5: 2, 7: 6}","[5, 7, 57]",5276575
ThB2Ir3,mp-10115,0.0,9.02219435,0.0,"{90: 1, 5: 2, 77: 3}","[5, 77, 90]",52773901
UB2Ir3,mp-10116,0.0,10.31014679,0.0,"{92: 1, 5: 2, 77: 3}","[5, 77, 92]",52773921
PuB2Ir3,mp-1072199,0.0,10.72031544,0.0,"{94: 1, 5: 2, 77: 3}","[5, 77, 94]",52773941
B2Pt3,mp-1228684,0.0,7.07553418,0.058685564083333475,"{5: 2, 78: 3}","[5, 78]",52783
B2Au,mp-10681,0.0,6.12233634,0.6686477705555554,"{5: 2, 79: 1}","[5, 79]",52791
B2O,mp-614006,0.0,4.82384667,0.9245854276388883,"{5: 2, 8: 1}","[5, 8]",5281
Na2Y2B2TeO10,mp-1194587,2.9002000000000003,1.89899593,0.0,"{11: 2, 39: 2, 5: 2, 52: 1, 8: 10}","[5, 8, 11, 39, 52]",52810112392521
Na2Dy2B2TeO10,mp-1194796,2.8880999999999997,1.86485419,0.0,"{11: 2, 66: 2, 5: 2, 52: 1, 8: 10}","[5, 8, 11, 52, 66]",52810112521662
Na2Ho2B2TeO10,mp-1194989,2.9344,1.86432924,0.0,"{11: 2, 67: 2, 5: 2, 52: 1, 8: 10}","[5, 8, 11, 52, 67]",52810112521672
Na2Er2B2TeO10,mp-1195435,2.9645,1.8953966,0.0,"{11: 2, 68: 2, 5: 2, 52: 1, 8: 10}","[5, 8, 11, 52, 68]",52810112521682
Na2Tm2B2TeO10,mp-1195532,3.1794000000000002,1.85545498,0.0,"{11: 2, 69: 2, 5: 2, 52: 1, 8: 10}","[5, 8, 11, 52, 69]",52810112521692
Na2Lu2B2TeO10,mp-1195028,2.9727,1.91396208,0.0,"{11: 2, 71: 2, 5: 2, 52: 1, 8: 10}","[5, 8, 11, 52, 71]",52810112521712