formula,material_id,band_gap,efermi,energy_above_hull,comp_atoms,sorted_keys_comp_atoms,comp_number
Dy4CoB13,mp-1200694,0.0,5.81656761,0.11406798222222392,"{66: 4, 27: 1, 5: 13}","[5, 27, 66]",513271664
Ho4CoB13,mp-1202390,0.0,5.76739273,0.10615756423611344,"{67: 4, 27: 1, 5: 13}","[5, 27, 67]",513271674
Er4CoB13,mp-1202869,0.0,5.78402282,0.10073117152777922,"{68: 4, 27: 1, 5: 13}","[5, 27, 68]",513271684
Tm4CoB13,mp-1201455,0.0,5.77138358,0.09539661687500267,"{69: 4, 27: 1, 5: 13}","[5, 27, 69]",513271694
Lu4CoB13,mp-20518,0.0,5.85109932,0.08773340368055749,"{71: 4, 27: 1, 5: 13}","[5, 27, 71]",513271714
Y4NiB13,mp-1201729,0.0,5.99812819,0.1204294904166705,"{39: 4, 28: 1, 5: 13}","[5, 28, 39]",513281394
Gd4NiB13,mp-1197241,0.0,5.70335736,0.15680409211806534,"{64: 4, 28: 1, 5: 13}","[5, 28, 64]",513281644
Tb4NiB13,mp-1202802,0.0,5.88814373,0.13107590936728286,"{65: 4, 28: 1, 5: 13}","[5, 28, 65]",513281654
Dy4NiB13,mp-1203435,0.0,5.93372425,0.11373582263889137,"{66: 4, 28: 1, 5: 13}","[5, 28, 66]",513281664
Ho4NiB13,mp-1202173,0.0,5.89492508,0.13377619683334885,"{67: 4, 28: 1, 5: 13}","[5, 28, 67]",513281674
Er4NiB13,mp-504627,0.0,5.95049205,0.09200707902778138,"{68: 4, 28: 1, 5: 13}","[5, 28, 68]",513281684
Tm4NiB13,mp-1203068,0.0,5.99350715,0.08231826335648407,"{69: 4, 28: 1, 5: 13}","[5, 28, 69]",513281694
Lu4NiB13,mp-1200891,0.0,5.99443262,0.06976270826389008,"{71: 4, 28: 1, 5: 13}","[5, 28, 71]",513281714
BAs,mp-10044,1.2036999999999995,5.92325565,0.08038976749999982,"{5: 1, 33: 1}","[5, 33]",51331
BTe2As,mp-631524,0.0,7.51242145,1.2027740964583344,"{5: 1, 52: 2, 33: 1}","[5, 33, 52]",51331522
Rb3BAs2,mp-9718,1.2941000000000003,0.87985452,0.0,"{37: 3, 5: 1, 33: 2}","[5, 33, 37]",51332373
Cs3BAs2,mp-573658,1.4845,1.52110264,0.0,"{55: 3, 5: 1, 33: 2}","[5, 33, 55]",51332553
Sn2BSe,mp-631557,0.0,6.90144122,1.0610351658333315,"{50: 2, 5: 1, 34: 1}","[5, 34, 50]",51341502
BSe2,mp-1214789,1.7712,0.31636213,0.0,"{5: 1, 34: 2}","[5, 34]",51342
RbBSe3,mp-10552,1.4394,1.50784018,0.0021489520166646514,"{37: 1, 5: 1, 34: 3}","[5, 34, 37]",51343371
CsBSe3,mp-573358,1.7167000000000001,1.73894469,0.0,"{55: 1, 5: 1, 34: 3}","[5, 34, 55]",51343551
TlBSe3,mp-29959,0.9154,3.09927188,0.0,"{81: 1, 5: 1, 34: 3}","[5, 34, 81]",51343811
Tl3BSe3,mp-28490,1.2251999999999996,2.78282022,0.0,"{81: 3, 5: 1, 34: 3}","[5, 34, 81]",51343813
BBr,mp-685043,1.2319,-1.49520557,0.012856942777776936,"{5: 1, 35: 1}","[5, 35]",51351
BPd2Br,mp-631580,0.0,4.8940456,1.3443384020833289,"{5: 1, 46: 2, 35: 1}","[5, 35, 46]",51351462
Ag2BBr,mp-631581,0.0,4.1528842,1.2809010885416683,"{47: 2, 5: 1, 35: 1}","[5, 35, 47]",51351472
Cs4Zr6BBr17,mp-1203593,1.0312000000000001,1.5359984,0.0,"{55: 4, 40: 6, 5: 1, 35: 17}","[5, 35, 40, 55]",513517406554
Rb8Zr6BBr20,mp-1209464,0.08999999999999986,2.02385383,0.0,"{37: 8, 40: 6, 5: 1, 35: 20}","[5, 35, 37, 40]",513520378406
BBr3,mp-23225,3.8273,-2.83168899,0.0,"{5: 1, 35: 3}","[5, 35]",51353
Y3BBr3,mp-1207808,0.0,4.15448018,0.0,"{39: 3, 5: 1, 35: 3}","[5, 35, 39]",51353393
Pr3BBr3,mp-1209395,0.0,3.5407051,0.0,"{59: 3, 5: 1, 35: 3}","[5, 35, 59]",51353593
Gd3BBr3,mp-1212672,0.0,3.83546635,0.0,"{64: 3, 5: 1, 35: 3}","[5, 35, 64]",51353643
Tb3BBr3,mp-1208486,0.0,4.00225331,0.0,"{65: 3, 5: 1, 35: 3}","[5, 35, 65]",51353653
Y4BBr6,mp-29485,0.0,3.02359902,0.0,"{39: 4, 5: 1, 35: 6}","[5, 35, 39]",51356394
Tb4BBr6,mp-29847,0.0,2.91532101,0.0,"{65: 4, 5: 1, 35: 6}","[5, 35, 65]",51356654
B13C2,mp-576,0.0,4.74924726,0.0,"{5: 13, 6: 2}","[5, 6]",51362
RbB,mp-1061023,0.0,0.12300154,2.172314421666667,"{37: 1, 5: 1}","[5, 37]",51371
B13N2,mp-534,0.0,8.34162047,0.13549375927777962,"{5: 13, 7: 2}","[5, 7]",51372
SrBPd4,mp-1191090,0.0,4.18146297,0.0,"{38: 1, 5: 1, 46: 4}","[5, 38, 46]",51381464
SrBiB,mp-631552,0.0,2.56405043,1.5807060342735078,"{38: 1, 83: 1, 5: 1}","[5, 38, 83]",51381831
Sm3B13O29,mp-1203984,0.02049999999999999,0.16423447,0.49208953679629364,"{62: 3, 5: 13, 8: 29}","[5, 8, 62]",513829623
YBRh3,mp-29725,0.0,5.79303339,0.0,"{39: 1, 5: 1, 45: 3}","[5, 39, 45]",51391453
YBPd3,mp-1018643,0.0,5.08344001,0.09077507272726137,"{39: 1, 5: 1, 46: 3}","[5, 39, 46]",51391463
YCdB,mp-1100401,0.4316,3.00349059,0.383142056666669,"{39: 1, 48: 1, 5: 1}","[5, 39, 48]",51391481
YBPt2,mp-5971,0.0,5.97491908,0.0,"{39: 1, 5: 1, 78: 2}","[5, 39, 78]",51391782
YBPt3,mp-1018644,0.0,6.35948261,0.09561044222222392,"{39: 1, 5: 1, 78: 3}","[5, 39, 78]",51391783
YHgB,mp-1100402,0.35630000000000006,3.77628646,0.4684993066666614,"{39: 1, 80: 1, 5: 1}","[5, 39, 80]",51391801
ZrB,mp-1014246,0.0,4.05376707,0.32960014250000036,"{40: 1, 5: 1}","[5, 40]",51401
ZrBRh3,mp-1068661,0.0,6.4804011,0.0,"{40: 1, 5: 1, 45: 3}","[5, 40, 45]",51401453
ZrAgB,mp-961701,0.0,2.79610725,1.4195500305555555,"{40: 1, 47: 1, 5: 1}","[5, 40, 47]",51401471
ZrBTe,mp-631518,0.0,5.10695439,1.694497984999991,"{40: 1, 5: 1, 52: 1}","[5, 40, 52]",51401521
Zr2BIr6,mp-1078623,0.0,8.44818681,0.0,"{40: 2, 5: 1, 77: 6}","[5, 40, 77]",51402776
Zr5Sn3B,mp-1188408,0.0,6.51071241,0.0,"{40: 5, 50: 3, 5: 1}","[5, 40, 50]",51405503
Zr6BI12,mp-760421,0.0,4.3120093,0.0,"{40: 6, 5: 1, 53: 12}","[5, 40, 53]",514065312
CsZr6BI14,mp-571410,0.7638000000000003,3.38904542,0.0,"{55: 1, 40: 6, 5: 1, 53: 14}","[5, 40, 53, 55]",514065314551
Zr9BMo4,mp-1192463,0.0,5.11970434,0.03748617285713962,"{40: 9, 5: 1, 42: 4}","[5, 40, 42]",51409424
Zr9BW4,mp-1192767,0.0,4.75858028,0.060493504285712874,"{40: 9, 5: 1, 74: 4}","[5, 40, 74]",51409744
Zr9Re4B,mp-1193442,0.0,5.08890941,0.019858034971427685,"{40: 9, 75: 4, 5: 1}","[5, 40, 75]",51409754
NbB,mp-2580,0.0,7.03086902,0.0,"{41: 1, 5: 1}","[5, 41]",51411
NaAlB14,mp-34763,1.5847999999999995,5.94362232,0.0,"{11: 1, 13: 1, 5: 14}","[5, 11, 13]",514111131
NbBRu,mp-1105360,0.0,7.39976628,0.010994721868694768,"{41: 1, 5: 1, 44: 1}","[5, 41, 44]",51411441
NbBRh3,mp-1206988,0.0,6.76320125,0.23062063333333072,"{41: 1, 5: 1, 45: 3}","[5, 41, 45]",51411453
NbBW,mp-631531,0.0,3.99925244,2.1398556049999975,"{41: 1, 5: 1, 74: 1}","[5, 41, 74]",51411741
NbBOs,mp-1195339,0.0,7.74622975,0.0009411447222191782,"{41: 1, 5: 1, 76: 1}","[5, 41, 76]",51411761
Al(Ni10B7)2,mp-505473,0.0,8.92607076,0.029769778000000358,"{13: 1, 28: 20, 5: 14}","[5, 13, 28]",5141312820
TbAlB14,mp-1201619,0.0,8.61411994,0.04975251052989016,"{65: 1, 13: 1, 5: 14}","[5, 13, 65]",514131651
DyAlB14,mp-1201129,0.0,8.6154629,0.050985186460595244,"{66: 1, 13: 1, 5: 14}","[5, 13, 66]",514131661
HoAlB14,mp-569726,0.0,8.60154464,0.05158441036344996,"{67: 1, 13: 1, 5: 14}","[5, 13, 67]",514131671
ErAlB14,mp-1198758,0.0,8.61643455,0.05282824069972669,"{68: 1, 13: 1, 5: 14}","[5, 13, 68]",514131681
LuAlB14,mp-1197767,0.0,8.55432526,0.05401301373665568,"{71: 1, 13: 1, 5: 14}","[5, 13, 71]",514131711
Ca7(B7Rh10)2,mp-568511,0.0,4.52097631,0.0,"{20: 7, 5: 14, 45: 20}","[5, 20, 45]",5142074520
BMo,mp-1890,0.0,9.71915682,0.0,"{5: 1, 42: 1}","[5, 42]",51421
BMoW,mp-1228637,0.0,8.2022338,0.041023881666667705,"{5: 1, 42: 1, 74: 1}","[5, 42, 74]",51421741
ReBMo,mp-1219525,0.0,8.69754097,0.05135541333333293,"{75: 1, 5: 1, 42: 1}","[5, 42, 75]",51421751
BMo2,mp-2501,0.0,8.6262136,0.02714571083333084,"{5: 1, 42: 2}","[5, 42]",51422
Hf9BMo4,mp-18024,0.0,5.59088805,0.002711930357143899,"{72: 9, 5: 1, 42: 4}","[5, 42, 72]",51424729
Y3(Fe31B7)2,mp-28618,0.0,5.40763627,0.26318248194620164,"{39: 3, 26: 62, 5: 14}","[5, 26, 39]",5142662393
Ho4NiB14,mp-505720,0.0,5.92507505,0.0,"{67: 4, 28: 1, 5: 14}","[5, 28, 67]",514281674
Ga3Ni27B14,mp-1204832,0.0,8.29070178,0.0,"{31: 3, 28: 27, 5: 14}","[5, 28, 31]",5142827313
TcB,mp-1002188,0.0,8.10664975,0.10273136659090909,"{43: 1, 5: 1}","[5, 43]",51431
Tc3B,mp-1087495,0.0,8.79495061,0.0,"{43: 3, 5: 1}","[5, 43]",51433
BRu,mp-1214978,0.0,6.09691514,1.0946214083333334,"{5: 1, 44: 1}","[5, 44]",51441
TaBRu,mp-1195237,0.0,7.98037185,0.0,"{73: 1, 5: 1, 44: 1}","[5, 44, 73]",51441731
BRu3,mp-1183231,0.0,8.19646587,0.6042154179166666,"{5: 1, 44: 3}","[5, 44]",51443
BRh,mp-567164,0.0,7.39308391,0.0,"{5: 1, 45: 1}","[5, 45]",51451
ErBPd2Rh,mp-1225489,0.0,5.69334423,0.0706293201568684,"{68: 1, 5: 1, 46: 2, 45: 1}","[5, 45, 46, 68]",51451462681
BRh2,mp-21502,0.0,7.00154612,0.07446695583333351,"{5: 1, 45: 2}","[5, 45]",51452
ErBPtRh2,mp-1225493,0.0,6.16427073,0.0,"{68: 1, 5: 1, 78: 1, 45: 2}","[5, 45, 68, 78]",51452681781
LaBRh3,mp-3088,0.0,7.71238095,0.0,"{57: 1, 5: 1, 45: 3}","[5, 45, 57]",51453571
CeBRh3,mp-510376,0.0,7.58051223,0.0,"{58: 1, 5: 1, 45: 3}","[5, 45, 58]",51453581
PrBRh3,mp-5200,0.0,5.76641024,0.0,"{59: 1, 5: 1, 45: 3}","[5, 45, 59]",51453591
NdBRh3,mp-3591,0.0,5.72959537,0.0,"{60: 1, 5: 1, 45: 3}","[5, 45, 60]",51453601
SmBRh3,mp-4982,0.0,5.63253023,0.0,"{62: 1, 5: 1, 45: 3}","[5, 45, 62]",51453621
EuBRh3,mp-510377,0.0,5.2314687,0.024343480000002415,"{63: 1, 5: 1, 45: 3}","[5, 45, 63]",51453631
GdBRh3,mp-19840,0.0,5.29811856,0.0,"{64: 1, 5: 1, 45: 3}","[5, 45, 64]",51453641
TbBRh3,mp-3869,0.0,5.80939212,0.0,"{65: 1, 5: 1, 45: 3}","[5, 45, 65]",51453651
DyBRh3,mp-3183,0.0,5.77188972,0.0,"{66: 1, 5: 1, 45: 3}","[5, 45, 66]",51453661
HoBRh3,mp-3710,0.0,5.72779266,0.0,"{67: 1, 5: 1, 45: 3}","[5, 45, 67]",51453671
ErBRh3,mp-3769,0.0,5.74681413,0.0,"{68: 1, 5: 1, 45: 3}","[5, 45, 68]",51453681
TmBRh3,mp-5438,0.0,5.72030745,0.0,"{69: 1, 5: 1, 45: 3}","[5, 45, 69]",51453691
LuBRh3,mp-3717,0.0,5.720234,0.0,"{71: 1, 5: 1, 45: 3}","[5, 45, 71]",51453711
HfBRh3,mp-1017578,0.0,6.63210732,0.0,"{72: 1, 5: 1, 45: 3}","[5, 45, 72]",51453721
ThBRh3,mp-1206772,0.0,7.7373823,0.0,"{90: 1, 5: 1, 45: 3}","[5, 45, 90]",51453901
UBRh3,mp-1069774,0.0,8.69405617,0.05523639378571232,"{92: 1, 5: 1, 45: 3}","[5, 45, 92]",51453921
Sn4BRh6,mp-30061,0.0,7.85278288,0.0,"{50: 4, 5: 1, 45: 6}","[5, 45, 50]",51456504
Eu4BPd12,mp-1225374,0.0,3.90101441,0.009952115588230726,"{63: 4, 5: 1, 46: 12}","[5, 46, 63]",514612634
BIrPd,mp-28897,0.0,6.40485695,0.0,"{5: 1, 77: 1, 46: 1}","[5, 46, 77]",51461771
La15B14C19,mp-679949,0.0,8.23017743,0.017795429819439157,"{57: 15, 5: 14, 6: 19}","[5, 6, 57]",5146195715
BPd2,mp-7424,0.0,5.2143708,0.0,"{5: 1, 46: 2}","[5, 46]",51462
Pr25(B7C13)2,mp-1221234,0.0,4.40430094,0.03085278620512888,"{59: 25, 5: 14, 6: 26}","[5, 6, 59]",5146265925
Nd25(B7C13)2,mp-1221391,0.0,4.32205124,0.022565238492304296,"{60: 25, 5: 14, 6: 26}","[5, 6, 60]",5146266025
BPd3,mp-20517,0.0,5.08191203,0.0,"{5: 1, 46: 3}","[5, 46]",51463
LaBPd3,mp-3846,0.0,6.92841046,0.14408425519999923,"{57: 1, 5: 1, 46: 3}","[5, 46, 57]",51463571
CeBPd3,mp-19948,0.0,6.6209927,0.20786606866666446,"{58: 1, 5: 1, 46: 3}","[5, 46, 58]",51463581
PrBPd3,mp-2976,0.0,5.14670399,0.11091275293333336,"{59: 1, 5: 1, 46: 3}","[5, 46, 59]",51463591
NdBPd3,mp-10120,0.0,5.10998996,0.1113346617333324,"{60: 1, 5: 1, 46: 3}","[5, 46, 60]",51463601
SmBPd3,mp-3428,0.0,4.96328576,0.10793925681818095,"{62: 1, 5: 1, 46: 3}","[5, 46, 62]",51463621
EuBPd3,mp-20040,0.0,4.68011849,0.07280895046428526,"{63: 1, 5: 1, 46: 3}","[5, 46, 63]",51463631
GdBPd3,mp-20967,0.0,4.82154731,0.12072131063636249,"{64: 1, 5: 1, 46: 3}","[5, 46, 64]",51463641
TbBPd3,mp-3022,0.0,5.16835018,0.11274995509090502,"{65: 1, 5: 1, 46: 3}","[5, 46, 65]",51463651
DyBPd3,mp-10060,0.0,5.14098084,0.11293425036364013,"{66: 1, 5: 1, 46: 3}","[5, 46, 66]",51463661
HoBPd3,mp-3693,0.0,5.09577252,0.11294318209089838,"{67: 1, 5: 1, 46: 3}","[5, 46, 67]",51463671
ErBPd3,mp-10061,0.0,5.1037359,0.11476224599999796,"{68: 1, 5: 1, 46: 3}","[5, 46, 68]",51463681
TmBPd3,mp-10134,0.0,5.07170472,0.11403531081818485,"{69: 1, 5: 1, 46: 3}","[5, 46, 69]",51463691
LuBPd3,mp-3105,0.0,5.03894417,0.11490506962962854,"{71: 1, 5: 1, 46: 3}","[5, 46, 71]",51463711
BPd4,mp-1228682,0.0,4.19437406,0.2419539392499992,"{5: 1, 46: 4}","[5, 46]",51464
BaBPd4,mp-1191182,0.0,4.18298911,0.0,"{56: 1, 5: 1, 46: 4}","[5, 46, 56]",51464561
BPd5,mp-1190529,0.0,4.63012109,0.0,"{5: 1, 46: 5}","[5, 46]",51465
BPd6,mp-1214755,0.0,3.9564266,0.0,"{5: 1, 46: 6}","[5, 46]",51466
Ce2BPd6,mp-1226779,0.0,6.84200522,0.11222538814815053,"{58: 2, 5: 1, 46: 6}","[5, 46, 58]",51466582
Eu2BPd6,mp-1225365,0.0,4.36958198,0.0,"{63: 2, 5: 1, 46: 6}","[5, 46, 63]",51466632
Er2BPd6,mp-1225046,0.0,5.3164457,0.012347829747479722,"{68: 2, 5: 1, 46: 6}","[5, 46, 68]",51466682
HfAgB,mp-1100399,0.0,3.06224967,1.4555748130555592,"{72: 1, 47: 1, 5: 1}","[5, 47, 72]",51471721
Sr4B14O25,mp-559330,5.206200000000001,1.06678092,0.0,"{38: 4, 5: 14, 8: 25}","[5, 8, 38]",514825384
La4B14O27,mp-645962,3.9245000000000005,3.37075295,0.0,"{57: 4, 5: 14, 8: 27}","[5, 8, 57]",514827574
Ce4B14O27,mp-1019597,0.16739999999999977,6.56200785,0.018457673481480086,"{58: 4, 5: 14, 8: 27}","[5, 8, 58]",514827584
Cd3B,mp-1183580,0.0,3.12242417,0.8491517252083334,"{48: 3, 5: 1}","[5, 48]",51483
Ba4Zn4B14Pb2O31,mp-1195127,3.6828,1.16875786,0.0,"{56: 4, 30: 4, 5: 14, 82: 2, 8: 31}","[5, 8, 30, 56, 82]",514831304564822
La3InB,mp-20590,0.0,7.04290865,0.20274191400000063,"{57: 3, 49: 1, 5: 1}","[5, 49, 57]",51491573
In2ReB,mp-631547,0.0,7.73640969,1.6446095745000022,"{49: 2, 75: 1, 5: 1}","[5, 49, 75]",51492751
In3B,mp-1184483,0.0,6.86447941,0.9006224002083343,"{49: 3, 5: 1}","[5, 49]",51493
SnB,mp-978886,0.0,6.45416685,0.7711706804166667,"{50: 1, 5: 1}","[5, 50]",51501
Sn3B,mp-1187032,0.0,7.38185678,0.921080893958333,"{50: 3, 5: 1}","[5, 50]",51503
BSb,mp-997618,0.7506000000000004,7.39875977,0.273972750416668,"{5: 1, 51: 1}","[5, 51]",51511
NaB15,mp-2315,0.0,5.19894855,0.0,"{11: 1, 5: 15}","[5, 11]",515111
BiBTe,mp-631511,0.0,6.19064503,1.2535360886111104,"{83: 1, 5: 1, 52: 1}","[5, 52, 83]",51521831
TlBTe2,mp-631520,0.0,6.18963878,1.1698621656250001,"{81: 1, 5: 1, 52: 2}","[5, 52, 81]",51522811
Ta4BTe8,mp-505499,0.0,5.73404393,0.0,"{73: 4, 5: 1, 52: 8}","[5, 52, 73]",51528734
BI3,mp-23189,2.6901,-0.6082331,0.0,"{5: 1, 53: 3}","[5, 53]",51533
Zr4(B5Ir4)3,mp-1215396,0.0,8.66422155,0.0,"{40: 4, 5: 15, 77: 12}","[5, 40, 77]",5154047712
CsB,mp-1060982,0.0,1.05151543,2.1456535114511492,"{55: 1, 5: 1}","[5, 55]",51551
BaTaB,mp-631570,0.0,3.67993112,2.052572823333332,"{56: 1, 73: 1, 5: 1}","[5, 56, 73]",51561731
LaReB,mp-631508,0.0,7.48293785,1.431116302777781,"{57: 1, 75: 1, 5: 1}","[5, 57, 75]",51571751
LaBPt2,mp-31052,0.0,7.95654057,0.0,"{57: 1, 5: 1, 78: 2}","[5, 57, 78]",51571782
LaBPt3,mp-1018633,0.0,7.94067383,0.16968911550000598,"{57: 1, 5: 1, 78: 3}","[5, 57, 78]",51571783
LaBPt4,mp-1211262,0.0,7.98450874,0.0,"{57: 1, 5: 1, 78: 4}","[5, 57, 78]",51571784
La5BPb3,mp-1105575,0.0,7.2848976,0.12336724124999598,"{57: 5, 5: 1, 82: 3}","[5, 57, 82]",51575823
CeBPt2,mp-10468,0.0,7.84086318,0.015580327968748975,"{58: 1, 5: 1, 78: 2}","[5, 58, 78]",51581782
CeBPt3,mp-22435,0.0,8.16854071,0.0,"{58: 1, 5: 1, 78: 3}","[5, 58, 78]",51581783
CeBPt4,mp-20051,0.0,7.73695499,0.0,"{58: 1, 5: 1, 78: 4}","[5, 58, 78]",51581784
CsAg2(B5O8)3,mp-679997,3.5033000000000003,0.21747745,0.0,"{55: 1, 47: 2, 5: 15, 8: 24}","[5, 8, 47, 55]",515824472551
Th2B15,mp-1217367,0.0,6.9924511,0.011059157205885128,"{90: 2, 5: 15}","[5, 90]",515902
PrBPt2,mp-1209526,0.0,6.02584771,0.0,"{59: 1, 5: 1, 78: 2}","[5, 59, 78]",51591782
PrBPt3,mp-11596,0.0,6.63589899,0.0,"{59: 1, 5: 1, 78: 3}","[5, 59, 78]",51591783
PrBPt4,mp-13483,0.0,6.47777626,0.0,"{59: 1, 5: 1, 78: 4}","[5, 59, 78]",51591784
NdBPt2,mp-569341,0.0,5.75614931,0.0,"{60: 1, 5: 1, 78: 2}","[5, 60, 78]",51601782
NdBPt3,mp-11597,0.0,6.55258416,0.0,"{60: 1, 5: 1, 78: 3}","[5, 60, 78]",51601783
NdBPt4,mp-1209829,0.0,6.44301754,0.0,"{60: 1, 5: 1, 78: 4}","[5, 60, 78]",51601784
BC,mp-984728,0.0,7.03407961,0.562633180104168,"{5: 1, 6: 1}","[5, 6]",5161
BOs3(CO)10,mp-726927,0.09299999999999997,-0.63762375,0.4483060880295078,"{5: 1, 76: 3, 6: 10, 8: 10}","[5, 6, 8, 76]",51610810763
BC10XeF17,mp-1215031,2.143,-1.47122735,0.39752530935344854,"{5: 1, 6: 10, 54: 1, 9: 17}","[5, 6, 9, 54]",51610917541
NaBC,mp-1238775,0.8095999999999997,4.82816448,0.03777853794300867,"{11: 1, 5: 1, 6: 1}","[5, 6, 11]",5161111
Mg14BC,mp-1026547,0.0,3.41683304,0.3289842222656256,"{12: 14, 5: 1, 6: 1}","[5, 6, 12]",51611214
Mg6BC,mp-1017229,0.0,4.15337884,0.4389643201562503,"{12: 6, 5: 1, 6: 1}","[5, 6, 12]",5161126
Al3BC,mp-1228446,0.4530000000000003,7.97204476,0.0,"{13: 3, 5: 1, 6: 1}","[5, 6, 13]",5161133
La3BCCl3,mp-571135,0.0,7.75712577,0.011142715312501217,"{57: 3, 5: 1, 6: 1, 17: 3}","[5, 6, 17, 57]",5161173573
CaBC,mp-1238800,0.0,6.75096435,0.2070149400000023,"{20: 1, 5: 1, 6: 1}","[5, 6, 20]",5161201
Mg10B16Ir19,mp-568548,0.0,7.00916186,0.0,"{12: 10, 5: 16, 77: 19}","[5, 12, 77]",51612107719
ScBC,mp-1232372,0.0,9.0049571,0.0011429697222204993,"{21: 1, 5: 1, 6: 1}","[5, 6, 21]",5161211
TiBC,mp-1232377,0.0,10.21947448,0.3074748037500008,"{22: 1, 5: 1, 6: 1}","[5, 6, 22]",5161221
VBC,mp-1238776,0.0,9.61063996,0.44025313749999917,"{23: 1, 5: 1, 6: 1}","[5, 6, 23]",5161231
Y4Fe28BC,mp-1216422,0.0,4.8208607,0.0,"{39: 4, 26: 28, 5: 1, 6: 1}","[5, 6, 26, 39]",51612628394
Nd4Fe28BC,mp-1220656,0.0,4.76690896,0.0028235511948526693,"{60: 4, 26: 28, 5: 1, 6: 1}","[5, 6, 26, 60]",51612628604
Dy4Fe28BC,mp-1226156,0.0,4.76484226,0.0,"{66: 4, 26: 28, 5: 1, 6: 1}","[5, 6, 26, 66]",51612628664
Fe6BC,mp-1225026,0.0,6.25839406,0.04490090531250068,"{26: 6, 5: 1, 6: 1}","[5, 6, 26]",5161266
Fe6BMo6C,mp-1225209,0.0,7.42667875,0.06991884410714277,"{26: 6, 5: 1, 42: 6, 6: 1}","[5, 6, 26, 42]",5161266426
YNiBC,mp-612670,0.0,5.61123797,0.0,"{39: 1, 28: 1, 5: 1, 6: 1}","[5, 6, 28, 39]",5161281391
TbNiBC,mp-1079626,0.0,5.50462762,0.0,"{65: 1, 28: 1, 5: 1, 6: 1}","[5, 6, 28, 65]",5161281651
ErNiBC,mp-1078704,0.0,5.44393278,0.0,"{68: 1, 28: 1, 5: 1, 6: 1}","[5, 6, 28, 68]",5161281681
LuNiBC,mp-6188,0.0,5.43717201,0.0,"{71: 1, 28: 1, 5: 1, 6: 1}","[5, 6, 28, 71]",5161281711
BC12ClF10,mp-1214900,2.7677,-0.8186652,0.3930988123567749,"{5: 1, 6: 12, 17: 1, 9: 10}","[5, 6, 9, 17]",51612910171
YBC,mp-1232379,0.0,7.68228053,0.17622191722221991,"{39: 1, 5: 1, 6: 1}","[5, 6, 39]",5161391
ZrBC,mp-1232384,0.0,8.8527932,0.4454730004166674,"{40: 1, 5: 1, 6: 1}","[5, 6, 40]",5161401
BMoC,mp-1238849,0.0,10.4751996,0.7458642941666671,"{5: 1, 42: 1, 6: 1}","[5, 6, 42]",5161421
BMoWC,mp-1228641,0.0,9.1791222,0.13775676250000046,"{5: 1, 42: 1, 74: 1, 6: 1}","[5, 6, 42, 74]",5161421741
BMo2C,mp-4472,0.0,9.49496717,0.0483452753125011,"{5: 1, 42: 2, 6: 1}","[5, 6, 42]",5161422
LaBC,mp-568090,0.0,8.41936936,0.0,"{57: 1, 5: 1, 6: 1}","[5, 6, 57]",5161571
CeBC,mp-639306,0.0,8.00081242,0.027373950444443906,"{58: 1, 5: 1, 6: 1}","[5, 6, 58]",5161581
PrBC,mp-570767,0.0,5.21983276,0.0023412277222210065,"{59: 1, 5: 1, 6: 1}","[5, 6, 59]",5161591
Pr2BC,mp-1078268,0.0,3.55748178,0.0,"{59: 2, 5: 1, 6: 1}","[5, 6, 59]",5161592
NdBC,mp-568966,0.0,5.12872266,0.0,"{60: 1, 5: 1, 6: 1}","[5, 6, 60]",5161601
Nd2BC,mp-864790,0.0,3.48406275,0.0,"{60: 2, 5: 1, 6: 1}","[5, 6, 60]",5161602
SmBC,mp-1208749,0.0,5.07613525,0.0,"{62: 1, 5: 1, 6: 1}","[5, 6, 62]",5161621
GdBC,mp-1071879,0.0,3.16064042,0.44540252611111164,"{64: 1, 5: 1, 6: 1}","[5, 6, 64]",5161641
DyBC,mp-9936,0.0,1.98285543,0.4479748249479174,"{66: 1, 5: 1, 6: 1}","[5, 6, 66]",5161661
HoBC,mp-1025084,0.0,2.99620883,0.43400740916666525,"{67: 1, 5: 1, 6: 1}","[5, 6, 67]",5161671
LuBC,mp-1238866,0.0,7.72874283,0.14706884433333212,"{71: 1, 5: 1, 6: 1}","[5, 6, 71]",5161711
Ca3BCNCl2,mp-649453,2.1079000000000003,3.38127189,0.0,"{20: 3, 5: 1, 6: 1, 7: 1, 17: 2}","[5, 6, 7, 17, 20]",516171172203
Sr3BCNCl2,mp-616577,1.8787999999999996,2.69847449,0.0,"{38: 3, 5: 1, 6: 1, 7: 1, 17: 2}","[5, 6, 7, 17, 38]",516171172383
Ca3BCBr2N,mp-1214049,2.2271,5.0372331,0.0,"{20: 3, 5: 1, 6: 1, 35: 2, 7: 1}","[5, 6, 7, 20, 35]",516171203352
KBCNF3,mp-1202872,6.719200000000001,-3.45289393,0.16637794041665988,"{19: 1, 5: 1, 6: 1, 7: 1, 9: 3}","[5, 6, 7, 9, 19]",51617193191
HfBC,mp-1232375,0.0,9.47800659,0.5470924237499997,"{72: 1, 5: 1, 6: 1}","[5, 6, 72]",5161721
TaBC,mp-1238820,0.0,9.57779062,0.7099635614583342,"{73: 1, 5: 1, 6: 1}","[5, 6, 73]",5161731
BRu6(CO)17,mp-728878,0.023099999999999996,-0.10947198,0.287889768755079,"{5: 1, 44: 6, 6: 17, 8: 17}","[5, 6, 8, 44]",51617817446