formula,material_id,band_gap,efermi,energy_above_hull,comp_atoms,sorted_keys_comp_atoms,comp_number
AcBO3,mp-1183052,0.8071000000000002,7.0377947,0.792472744666668,"{89: 1, 5: 1, 8: 3}","[5, 8, 89]",5183891
ThBO3,mp-1187416,0.0,10.35622653,1.189993245156252,"{90: 1, 5: 1, 8: 3}","[5, 8, 90]",5183901
PaBO3,mp-973877,0.0,12.55308833,1.1269523429791661,"{91: 1, 5: 1, 8: 3}","[5, 8, 91]",5183911
BaMgBO3F,mp-1198065,4.1903,1.59653098,0.0,"{56: 1, 12: 1, 5: 1, 8: 3, 9: 1}","[5, 8, 9, 12, 56]",518391121561
Mg2BO3F,mp-7995,4.4508,2.59543226,0.0020026116964260154,"{12: 2, 5: 1, 8: 3, 9: 1}","[5, 8, 9, 12]",518391122
BaCaBO3F,mp-694911,3.8701,1.34953921,0.006657377482994775,"{56: 1, 20: 1, 5: 1, 8: 3, 9: 1}","[5, 8, 9, 20, 56]",518391201561
BaZnBO3F,mp-1077866,3.6218,0.91821733,0.02034385999999877,"{56: 1, 30: 1, 5: 1, 8: 3, 9: 1}","[5, 8, 9, 30, 56]",518391301561
BTe3(OF5)3,mp-561226,3.7899,-2.91853239,0.0,"{5: 1, 52: 3, 8: 3, 9: 15}","[5, 8, 9, 52]",5183915523
BPb2O3F,mp-1202733,3.1984,2.39464966,0.0,"{5: 1, 82: 2, 8: 3, 9: 1}","[5, 8, 9, 82]",518391822
UBO3,mp-1187784,0.0,12.17202029,0.9734987449791657,"{92: 1, 5: 1, 8: 3}","[5, 8, 92]",5183921
BaAlBO3F2,mp-558491,6.0642000000000005,1.11652202,0.0,"{56: 1, 13: 1, 5: 1, 8: 3, 9: 2}","[5, 8, 9, 13, 56]",518392131561
BaGaBO3F2,mp-10509,4.9696,0.4219724,0.0,"{56: 1, 31: 1, 5: 1, 8: 3, 9: 2}","[5, 8, 9, 31, 56]",518392311561
NpBO3,mp-977058,0.0,12.85776977,0.8432484849791653,"{93: 1, 5: 1, 8: 3}","[5, 8, 93]",5183931
Mg3B(OF)3,mp-554542,5.4165,1.02483882,0.0,"{12: 3, 5: 1, 8: 3, 9: 3}","[5, 8, 9, 12]",518393123
Gd2B(OF)3,mp-554636,2.7369,4.05402227,0.0,"{64: 2, 5: 1, 8: 3, 9: 3}","[5, 8, 9, 64]",518393642
PuBO3,mp-975564,0.0,12.17015098,0.7867055536666676,"{94: 1, 5: 1, 8: 3}","[5, 8, 94]",5183941
Bi25BO39,mp-759766,1.8929000000000005,3.63450262,0.09804535705769535,"{83: 25, 5: 1, 8: 39}","[5, 8, 83]",518398325
NaSiBO4,mp-558181,5.448600000000001,1.90512463,0.0,"{11: 1, 14: 1, 5: 1, 8: 4}","[5, 8, 11, 14]",5184111141
MgAlBO4,mp-8376,6.0077,3.82825938,0.0,"{12: 1, 13: 1, 5: 1, 8: 4}","[5, 8, 12, 13]",5184121131
MgScBO4,mp-1221965,3.3919,5.92118426,0.010147680803580528,"{12: 1, 21: 1, 5: 1, 8: 4}","[5, 8, 12, 21]",5184121211
MgTiBO4,mp-1222024,0.0,6.21945412,0.06971227486527809,"{12: 1, 22: 1, 5: 1, 8: 4}","[5, 8, 12, 22]",5184121221
MgVBO4,mp-2223622,2.4577999999999998,2.9394174,0.12200689776785367,"{12: 1, 23: 1, 5: 1, 8: 4}","[5, 8, 12, 23]",5184121231
MgFeBO4,mp-1210634,1.8677000000000001,3.17286965,0.025640889434521696,"{12: 1, 26: 1, 5: 1, 8: 4}","[5, 8, 12, 26]",5184121261
MgGaBO4,mp-1210623,3.112,2.97386515,0.003821235505949261,"{12: 1, 31: 1, 5: 1, 8: 4}","[5, 8, 12, 31]",5184121311
Mg2BO4,mp-1210705,0.26590000000000025,2.14474993,0.05679497187500182,"{12: 2, 5: 1, 8: 4}","[5, 8, 12]",5184122
Mg3BO4,mp-1099256,0.5821999999999994,6.77994295,0.7309013773437503,"{12: 3, 5: 1, 8: 4}","[5, 8, 12]",5184123
CaAlBO4,mp-559759,4.4509,0.79674122,0.0,"{20: 1, 13: 1, 5: 1, 8: 4}","[5, 8, 13, 20]",5184131201
SrAlBO4,mp-21563,4.297899999999999,1.16877225,0.06923542267858718,"{38: 1, 13: 1, 5: 1, 8: 4}","[5, 8, 13, 38]",5184131381
AlBPbO4,mp-558137,2.7567000000000004,4.17669567,0.0,"{13: 1, 5: 1, 82: 1, 8: 4}","[5, 8, 13, 82]",5184131821
BPO4,mp-3589,7.2565,0.44506705,0.0,"{5: 1, 15: 1, 8: 4}","[5, 8, 15]",5184151
CuBClO4,mp-1104904,0.0,0.68406724,0.4605807365476178,"{29: 1, 5: 1, 17: 1, 8: 4}","[5, 8, 17, 29]",5184171291
CaGaBO4,mp-557855,3.9612,0.06466586,0.0,"{20: 1, 31: 1, 5: 1, 8: 4}","[5, 8, 20, 31]",5184201311
CaYBO4,mp-1213894,4.3059,1.52013159,0.0,"{20: 1, 39: 1, 5: 1, 8: 4}","[5, 8, 20, 39]",5184201391
ScNiBO4,mp-1219308,0.0,4.71495951,0.00853202428571187,"{21: 1, 28: 1, 5: 1, 8: 4}","[5, 8, 21, 28]",5184211281
VBO4,mp-754594,2.6635,-1.43874565,0.0,"{23: 1, 5: 1, 8: 4}","[5, 8, 23]",5184231
CrBPbO4,mp-21100,1.9943,4.01608272,0.0,"{24: 1, 5: 1, 82: 1, 8: 4}","[5, 8, 24, 82]",5184241821
MnFeBO4,mp-1176443,0.9277000000000002,3.27104459,0.03367858457143136,"{25: 1, 26: 1, 5: 1, 8: 4}","[5, 8, 25, 26]",5184251261
MnBPbO4,mp-19882,0.9108999999999998,4.12846965,0.0,"{25: 1, 5: 1, 82: 1, 8: 4}","[5, 8, 25, 82]",5184251821
Mn2BO4,mp-28943,0.5381,3.61528101,0.0,"{25: 2, 5: 1, 8: 4}","[5, 8, 25]",5184252
FeCoBO4,mp-504583,0.2672000000000003,2.64229267,0.15575309309523266,"{26: 1, 27: 1, 5: 1, 8: 4}","[5, 8, 26, 27]",5184261271
ZnFeBO4,mp-1215822,1.1035999999999997,2.82611509,0.07670909297618955,"{30: 1, 26: 1, 5: 1, 8: 4}","[5, 8, 26, 30]",5184261301
FeBPbO4,mp-20028,2.0864000000000003,3.17510932,0.0,"{26: 1, 5: 1, 82: 1, 8: 4}","[5, 8, 26, 82]",5184261821
Fe2BO4,mp-566717,0.8631000000000006,4.68244114,0.010866036964300108,"{26: 2, 5: 1, 8: 4}","[5, 8, 26]",5184262
Co2BO4,mp-1213790,0.42559999999999976,3.08575555,0.2286830953571437,"{27: 2, 5: 1, 8: 4}","[5, 8, 27]",5184272
Zn2BO4,mp-1207482,0.0,1.33402555,0.09655778770833123,"{30: 2, 5: 1, 8: 4}","[5, 8, 30]",5184302
SrGaBO4,mp-1197916,3.7683,3.61049662,0.0,"{38: 1, 31: 1, 5: 1, 8: 4}","[5, 8, 31, 38]",5184311381
GaBPbO4,mp-505743,3.3713999999999995,2.97259706,0.0,"{31: 1, 5: 1, 82: 1, 8: 4}","[5, 8, 31, 82]",5184311821
BAsO4,mp-3277,4.2615,-0.00840492,0.0,"{5: 1, 33: 1, 8: 4}","[5, 8, 33]",5184331
NbBO4,mp-8615,2.4588999999999994,3.26847026,0.0,"{41: 1, 5: 1, 8: 4}","[5, 8, 41]",5184411
Cd2BO4,mp-1201604,1.2871,1.38607628,0.10542796348214445,"{48: 2, 5: 1, 8: 4}","[5, 8, 48]",5184482
BaBiBO4,mp-559186,3.5528000000000004,1.94018523,0.0,"{56: 1, 83: 1, 5: 1, 8: 4}","[5, 8, 56, 83]",5184561831
TaBO4,mp-4624,3.4514,3.57179058,0.0,"{73: 1, 5: 1, 8: 4}","[5, 8, 73]",5184731
BiBPbO4,mp-556601,2.8773,3.37485739,0.0,"{83: 1, 5: 1, 82: 1, 8: 4}","[5, 8, 82, 83]",5184821831
BPb3O4F,mp-1201056,2.3654,3.23387864,0.007714744166664289,"{5: 1, 82: 3, 8: 4, 9: 1}","[5, 8, 9, 82]",518491823
Na2BSO4F3,mp-1191673,5.7662,-0.37085009,0.0,"{11: 2, 5: 1, 16: 1, 8: 4, 9: 3}","[5, 8, 9, 11, 16]",518493112161
NaHoBO5,mp-1188943,0.0,1.06072632,0.2104394258984401,"{11: 1, 67: 1, 5: 1, 8: 5}","[5, 8, 11, 67]",5185111671
NaUBO5,mp-557744,1.9304000000000001,1.64864137,0.0,"{11: 1, 92: 1, 5: 1, 8: 5}","[5, 8, 11, 92]",5185111921
MgFe2BO5,mp-1196909,1.4680000000000004,3.45758611,0.007554500642366513,"{12: 1, 26: 2, 5: 1, 8: 5}","[5, 8, 12, 26]",5185121262
Mg2TiBO5,mp-1210684,0.0,6.37446672,0.04167837269445318,"{12: 2, 22: 1, 5: 1, 8: 5}","[5, 8, 12, 22]",5185122221
Mg2FeBO5,mp-1210692,2.0856999999999997,3.24392772,0.014819424444445062,"{12: 2, 26: 1, 5: 1, 8: 5}","[5, 8, 12, 26]",5185122261
AlFe2BO5,mp-1096865,2.8114,4.31430302,6.26754999970558e-05,"{13: 1, 26: 2, 5: 1, 8: 5}","[5, 8, 13, 26]",5185131262
AlNi2BO5,mp-1214877,3.621100000000001,4.82052065,0.0,"{13: 1, 28: 2, 5: 1, 8: 5}","[5, 8, 13, 28]",5185131282
CaSiBO5,mp-732197,0.4043000000000001,1.81607696,0.08110582348958317,"{20: 1, 14: 1, 5: 1, 8: 5}","[5, 8, 14, 20]",5185141201
LaSiBO5,mp-1222841,4.297999999999999,8.77317808,0.0,"{57: 1, 14: 1, 5: 1, 8: 5}","[5, 8, 14, 57]",5185141571
CeSiBO5,mp-22225,0.15749999999999975,7.34877735,0.0,"{58: 1, 14: 1, 5: 1, 8: 5}","[5, 8, 14, 58]",5185141581
NdSiBO5,mp-1220077,5.213100000000001,2.91836509,0.0,"{60: 1, 14: 1, 5: 1, 8: 5}","[5, 8, 14, 60]",5185141601
CaBPO5,mp-6667,5.3231,2.89152823,0.00563909244048677,"{20: 1, 5: 1, 15: 1, 8: 5}","[5, 8, 15, 20]",5185151201
SrBPO5,mp-6486,5.3873999999999995,2.20907029,0.0,"{38: 1, 5: 1, 15: 1, 8: 5}","[5, 8, 15, 38]",5185151381
BaBPO5,mp-6040,5.495,1.67429113,0.0,"{56: 1, 5: 1, 15: 1, 8: 5}","[5, 8, 15, 56]",5185151561
BPPbO5,mp-21266,4.2593000000000005,3.21893604,0.0,"{5: 1, 15: 1, 82: 1, 8: 5}","[5, 8, 15, 82]",5185151821
ScFe2BO5,mp-1094074,3.1988999999999996,3.06793574,0.0,"{21: 1, 26: 2, 5: 1, 8: 5}","[5, 8, 21, 26]",5185211262
VFe2BO5,mp-1207977,1.6459999999999995,3.46997186,0.0,"{23: 1, 26: 2, 5: 1, 8: 5}","[5, 8, 23, 26]",5185231262
VCo2BO5,mp-1207853,1.5536000000000003,3.88844724,0.16873751555555572,"{23: 1, 27: 2, 5: 1, 8: 5}","[5, 8, 23, 27]",5185231272
V3BO5,mp-1207931,0.019400000000000084,5.03004095,0.012894157453702704,"{23: 3, 5: 1, 8: 5}","[5, 8, 23]",5185233
CrNi2BO5,mp-1213761,2.7366,4.0602231,0.0,"{24: 1, 28: 2, 5: 1, 8: 5}","[5, 8, 24, 28]",5185241282
Mn3BO5,mp-505442,0.0,3.62051711,0.011457892222212607,"{25: 3, 5: 1, 8: 5}","[5, 8, 25]",5185253
FeCo2BO5,mp-1203720,0.0,2.88686873,0.25707553736111066,"{26: 1, 27: 2, 5: 1, 8: 5}","[5, 8, 26, 27]",5185261272
FeNi2BO5,mp-21522,1.6665,4.01018031,0.0,"{26: 1, 28: 2, 5: 1, 8: 5}","[5, 8, 26, 28]",5185261282
FeCu2BO5,mp-1225359,0.050899999999999945,3.91573351,0.051361273888884895,"{26: 1, 29: 2, 5: 1, 8: 5}","[5, 8, 26, 29]",5185261292
GaFe2BO5,mp-1097025,2.1137999999999995,3.30238412,0.0,"{31: 1, 26: 2, 5: 1, 8: 5}","[5, 8, 26, 31]",5185262311
Fe3BO5,mp-22223,1.0194999999999994,3.50816274,0.0,"{26: 3, 5: 1, 8: 5}","[5, 8, 26]",5185263
Co3BO5,mp-542153,0.0,4.66537062,0.1930054708333424,"{27: 3, 5: 1, 8: 5}","[5, 8, 27]",5185273
GaNi2BO5,mp-505076,3.0727999999999995,3.8989841,0.0,"{31: 1, 28: 2, 5: 1, 8: 5}","[5, 8, 28, 31]",5185282311
Ni3BO5,mp-1210020,0.0,4.13390893,0.0,"{28: 3, 5: 1, 8: 5}","[5, 8, 28]",5185283
BaLaCuBO5,mp-14970,0.0,4.59233364,0.0018921994032918832,"{56: 1, 57: 1, 29: 1, 5: 1, 8: 5}","[5, 8, 29, 56, 57]",5185291561571
BaNdCuBO5,mp-10350,0.0,3.45778895,0.0,"{56: 1, 60: 1, 29: 1, 5: 1, 8: 5}","[5, 8, 29, 56, 60]",5185291561601
BaSmCuBO5,mp-1214336,0.5394000000000001,3.51767748,0.0016954971666747198,"{56: 1, 62: 1, 29: 1, 5: 1, 8: 5}","[5, 8, 29, 56, 62]",5185291561621
BaGdCuBO5,mp-1214529,0.0,3.56913362,0.01843382498148749,"{56: 1, 64: 1, 29: 1, 5: 1, 8: 5}","[5, 8, 29, 56, 64]",5185291561641
BaTbCuBO5,mp-1214316,0.5544000000000002,3.68490909,0.01585487381941686,"{56: 1, 65: 1, 29: 1, 5: 1, 8: 5}","[5, 8, 29, 56, 65]",5185291561651
Cu3BO5,mp-1213419,0.0,3.6694361,0.010850911944444874,"{29: 3, 5: 1, 8: 5}","[5, 8, 29]",5185293
Zn3BO5,mp-1207490,0.0,1.48441455,0.081226926550924,"{30: 3, 5: 1, 8: 5}","[5, 8, 30]",5185303
LaGeBO5,mp-19957,4.030800000000001,4.05162067,0.005584521041670953,"{57: 1, 32: 1, 5: 1, 8: 5}","[5, 8, 32, 57]",5185321571
PrGeBO5,mp-559590,3.9886999999999997,2.0778411,0.005337873368056023,"{59: 1, 32: 1, 5: 1, 8: 5}","[5, 8, 32, 59]",5185321591
NdGeBO5,mp-540996,4.0084,2.25700909,0.004291426406263454,"{60: 1, 32: 1, 5: 1, 8: 5}","[5, 8, 32, 60]",5185321601
BaBAsO5,mp-9784,3.5435999999999996,1.22873258,0.0,"{56: 1, 5: 1, 33: 1, 8: 5}","[5, 8, 33, 56]",5185331561
BAsPbO5,mp-22430,3.3847,2.65011823,0.00437672011218293,"{5: 1, 33: 1, 82: 1, 8: 5}","[5, 8, 33, 82]",5185331821
Bi2BO5,mp-754692,0.0,4.08989455,0.040458256458348885,"{83: 2, 5: 1, 8: 5}","[5, 8, 83]",5185832
Na3Mn2BO6,mp-1221286,1.9648999999999999,1.85818012,0.0985045166666918,"{11: 3, 25: 2, 5: 1, 8: 6}","[5, 8, 11, 25]",5186113252
TbSi4B18C,mp-1217512,1.4466,6.7951677,0.0,"{65: 1, 14: 4, 5: 18, 6: 1}","[5, 6, 14, 65]",51861144651
MgBPO6,mp-1202864,0.0,0.73946801,0.20794457345899975,"{12: 1, 5: 1, 15: 1, 8: 6}","[5, 8, 12, 15]",5186121151
Mg3BO6,mp-1189526,0.0,0.9408087,0.23059338793750062,"{12: 3, 5: 1, 8: 6}","[5, 8, 12]",5186123
KSi2BO6,mp-1019889,5.3233999999999995,1.02374328,0.0,"{19: 1, 14: 2, 5: 1, 8: 6}","[5, 8, 14, 19]",5186142191
CsSi2BO6,mp-1019719,5.258900000000001,1.34880935,0.0,"{55: 1, 14: 2, 5: 1, 8: 6}","[5, 8, 14, 55]",5186142551
NiBPO6,mp-1199032,0.08999999999999986,1.0334201,0.20116242404320595,"{28: 1, 5: 1, 15: 1, 8: 6}","[5, 8, 15, 28]",5186151281
KGe2BO6,mp-556463,3.498,-0.00208756,0.009678963828925191,"{19: 1, 32: 2, 5: 1, 8: 6}","[5, 8, 19, 32]",5186191322
V3BO6,mp-770370,1.0272999999999994,4.35302714,0.007078206625003247,"{23: 3, 5: 1, 8: 6}","[5, 8, 23]",5186233
Cr3BO6,mp-18551,0.17850000000000055,5.02348651,0.022065506750001518,"{24: 3, 5: 1, 8: 6}","[5, 8, 24]",5186243
Fe3BO6,mp-22774,1.4383,3.08298854,0.0013293519999990622,"{26: 3, 5: 1, 8: 6}","[5, 8, 26]",5186263
NbNi2BO6,mp-21600,2.4549000000000003,3.40024995,0.0,"{41: 1, 28: 2, 5: 1, 8: 6}","[5, 8, 28, 41]",5186282411
Cu2BO6,mp-1196064,0.0,0.13455541,0.291661434606481,"{29: 2, 5: 1, 8: 6}","[5, 8, 29]",5186292
Ce33Fe13(B9C17)2,mp-1197596,0.0,7.76550318,0.03296991163052532,"{58: 33, 26: 13, 5: 18, 6: 34}","[5, 6, 26, 58]",51863426135833
LaBMoO6,mp-558445,3.5622999999999996,2.47114044,0.01008726894136025,"{57: 1, 5: 1, 42: 1, 8: 6}","[5, 8, 42, 57]",5186421571
CeBMoO6,mp-642871,0.11580000000000013,5.35804197,0.07362411531083168,"{58: 1, 5: 1, 42: 1, 8: 6}","[5, 8, 42, 58]",5186421581
NdBMoO6,mp-1196885,3.5265000000000004,1.31458458,0.02023789292243805,"{60: 1, 5: 1, 42: 1, 8: 6}","[5, 8, 42, 60]",5186421601
CsBO6,mp-1087531,0.0,-0.91325212,0.800822520625001,"{55: 1, 5: 1, 8: 6}","[5, 8, 55]",5186551
LaBWO6,mp-1211317,3.8287000000000004,6.31577668,0.026527069254385083,"{57: 1, 5: 1, 74: 1, 8: 6}","[5, 8, 57, 74]",5186571741
Bi3BO6,mp-769033,2.1160000000000005,5.33744346,0.06682987087500081,"{83: 3, 5: 1, 8: 6}","[5, 8, 83]",5186833
NaBO7,mp-1189672,0.28049999999999997,-0.90312395,0.24990870138889143,"{11: 1, 5: 1, 8: 7}","[5, 8, 11]",5187111
NaMg6BO7,mp-1030690,1.2988000000000008,5.44861033,0.42545628100901034,"{11: 1, 12: 6, 5: 1, 8: 7}","[5, 8, 11, 12]",5187111126
NaSi2BO7,mp-1191190,0.7714,-0.00942492,0.1651999167424263,"{11: 1, 14: 2, 5: 1, 8: 7}","[5, 8, 11, 14]",5187111142
Na2SiBSbO7,mp-771025,2.1623,1.35778545,0.07896003666665585,"{11: 2, 14: 1, 5: 1, 51: 1, 8: 7}","[5, 8, 11, 14, 51]",5187112141511
Na2SiBiBO7,mp-772999,0.07450000000000001,1.16085853,0.08501107749999992,"{11: 2, 14: 1, 83: 1, 5: 1, 8: 7}","[5, 8, 11, 14, 83]",5187112141831
Na2VBPO7,mp-768554,1.2205,0.48647325,0.09037262302085924,"{11: 2, 23: 1, 5: 1, 15: 1, 8: 7}","[5, 8, 11, 15, 23]",5187112151231
Na2MnBPO7,mp-768579,0.0,0.52569803,0.07341930586807166,"{11: 2, 25: 1, 5: 1, 15: 1, 8: 7}","[5, 8, 11, 15, 25]",5187112151251
Na2FeBPO7,mp-756481,0.2705,0.16251949,0.05557781553820007,"{11: 2, 26: 1, 5: 1, 15: 1, 8: 7}","[5, 8, 11, 15, 26]",5187112151261
Na2SnBPO7,mp-768592,1.8591999999999997,1.53380699,0.09409582885418555,"{11: 2, 50: 1, 5: 1, 15: 1, 8: 7}","[5, 8, 11, 15, 50]",5187112151501
Na2BiBPO7,mp-771773,0.029200000000000004,0.55596393,0.07571295954861235,"{11: 2, 83: 1, 5: 1, 15: 1, 8: 7}","[5, 8, 11, 15, 83]",5187112151831
Na2MnBSO7,mp-771142,0.9618,0.29536127,0.09392942510199465,"{11: 2, 25: 1, 5: 1, 16: 1, 8: 7}","[5, 8, 11, 16, 25]",5187112161251
Na2CuBSO7,mp-771122,0.628,0.2391348,0.08549195694311074,"{11: 2, 29: 1, 5: 1, 16: 1, 8: 7}","[5, 8, 11, 16, 29]",5187112161291
Na2BSbSO7,mp-771026,3.4585,0.94556712,0.08768384468750412,"{11: 2, 5: 1, 51: 1, 16: 1, 8: 7}","[5, 8, 11, 16, 51]",5187112161511
Na2BiBSO7,mp-772048,3.0667,0.94003245,0.08933213499998072,"{11: 2, 83: 1, 5: 1, 16: 1, 8: 7}","[5, 8, 11, 16, 83]",5187112161831
Na2VBAsO7,mp-773190,1.5444,0.31137755,0.08588467642855058,"{11: 2, 23: 1, 5: 1, 33: 1, 8: 7}","[5, 8, 11, 23, 33]",5187112231331
Na2MnBAsO7,mp-771164,0.0,0.19900284,0.05997680166666708,"{11: 2, 25: 1, 5: 1, 33: 1, 8: 7}","[5, 8, 11, 25, 33]",5187112251331
Na2FeBAsO7,mp-756330,0.2686,-0.38261123,0.05603800004463633,"{11: 2, 26: 1, 5: 1, 33: 1, 8: 7}","[5, 8, 11, 26, 33]",5187112261331
Na2CoBAsO7,mp-771767,0.33030000000000004,0.43888625,0.1136413568981478,"{11: 2, 27: 1, 5: 1, 33: 1, 8: 7}","[5, 8, 11, 27, 33]",5187112271331
Na2SnBAsO7,mp-772625,1.1457999999999997,1.15747517,0.07777974840278024,"{11: 2, 50: 1, 5: 1, 33: 1, 8: 7}","[5, 8, 11, 33, 50]",5187112331501
Na2BiBAsO7,mp-1176416,0.1372,0.25753707,0.06863320538265771,"{11: 2, 83: 1, 5: 1, 33: 1, 8: 7}","[5, 8, 11, 33, 83]",5187112331831
Na3VSiBO7,mp-771154,1.2076,1.76015681,0.025728259879808313,"{11: 3, 23: 1, 14: 1, 5: 1, 8: 7}","[5, 8, 11, 14, 23]",5187113141231
Na3CrSiBO7,mp-771269,0.6675000000000002,1.3200296,0.05027060908654146,"{11: 3, 24: 1, 14: 1, 5: 1, 8: 7}","[5, 8, 11, 14, 24]",5187113141241
Na3MnSiBO7,mp-772970,0.7340000000000002,1.27148107,0.019961745304494904,"{11: 3, 25: 1, 14: 1, 5: 1, 8: 7}","[5, 8, 11, 14, 25]",5187113141251
Na3FeSiBO7,mp-771318,0.0,1.13890455,0.022956574711540334,"{11: 3, 26: 1, 14: 1, 5: 1, 8: 7}","[5, 8, 11, 14, 26]",5187113141261
Na3CoSiBO7,mp-756360,0.0,2.03097368,0.06027878913461393,"{11: 3, 27: 1, 14: 1, 5: 1, 8: 7}","[5, 8, 11, 14, 27]",5187113141271
Na3SiSnBO7,mp-772986,3.0665000000000004,2.00783043,0.0,"{11: 3, 14: 1, 50: 1, 5: 1, 8: 7}","[5, 8, 11, 14, 50]",5187113141501
Na3SiBSbO7,mp-770708,0.0,3.68660802,0.08062763387019167,"{11: 3, 14: 1, 5: 1, 51: 1, 8: 7}","[5, 8, 11, 14, 51]",5187113141511
Na3SiBiBO7,mp-772711,0.0,2.03771273,0.026838610686827025,"{11: 3, 14: 1, 83: 1, 5: 1, 8: 7}","[5, 8, 11, 14, 83]",5187113141831
Na3VBPO7,mp-756707,1.7686,2.04651687,0.01361331393546461,"{11: 3, 23: 1, 5: 1, 15: 1, 8: 7}","[5, 8, 11, 15, 23]",5187113151231
Na3CrBPO7,mp-756584,2.8333000000000004,1.41798262,0.014073491002746685,"{11: 3, 24: 1, 5: 1, 15: 1, 8: 7}","[5, 8, 11, 15, 24]",5187113151241
Na3MnBPO7,mp-768574,1.2012000000000003,1.4740677,0.007923116267177122,"{11: 3, 25: 1, 5: 1, 15: 1, 8: 7}","[5, 8, 11, 15, 25]",5187113151251
Na3FeBPO7,mp-756274,1.8913999999999997,1.76881142,0.02332231561813547,"{11: 3, 26: 1, 5: 1, 15: 1, 8: 7}","[5, 8, 11, 15, 26]",5187113151261
Na3CoBPO7,mp-756305,0.13690000000000002,1.89406817,0.061959236584253397,"{11: 3, 27: 1, 5: 1, 15: 1, 8: 7}","[5, 8, 11, 15, 27]",5187113151271
Na3NiBPO7,mp-768540,0.0,1.60567197,0.023151384065936753,"{11: 3, 28: 1, 5: 1, 15: 1, 8: 7}","[5, 8, 11, 15, 28]",5187113151281
Na3CuBPO7,mp-756517,0.0,1.47163374,0.061349743962912484,"{11: 3, 29: 1, 5: 1, 15: 1, 8: 7}","[5, 8, 11, 15, 29]",5187113151291
Na3BSbPO7,mp-768556,3.5102,2.30138763,0.046142565281587444,"{11: 3, 5: 1, 51: 1, 15: 1, 8: 7}","[5, 8, 11, 15, 51]",5187113151511
Na3BiBPO7,mp-768582,3.6301000000000005,1.63723994,0.020522083202666686,"{11: 3, 83: 1, 5: 1, 15: 1, 8: 7}","[5, 8, 11, 15, 83]",5187113151831
Na3MnBSO7,mp-773188,2.1180000000000003,2.32716728,0.0671450534615401,"{11: 3, 25: 1, 5: 1, 16: 1, 8: 7}","[5, 8, 11, 16, 25]",5187113161251
Na3FeBSO7,mp-774247,2.6907000000000005,2.20986175,0.06940821346154014,"{11: 3, 26: 1, 5: 1, 16: 1, 8: 7}","[5, 8, 11, 16, 26]",5187113161261
Na3CoBSO7,mp-770831,2.0964,1.99811266,0.12671643301282032,"{11: 3, 27: 1, 5: 1, 16: 1, 8: 7}","[5, 8, 11, 16, 27]",5187113161271
Na3NiBSO7,mp-771143,2.6897999999999995,2.24578806,0.07432970442308218,"{11: 3, 28: 1, 5: 1, 16: 1, 8: 7}","[5, 8, 11, 16, 28]",5187113161281
Na3CuBSO7,mp-770795,0.3091999999999997,2.12367477,0.08911558653845386,"{11: 3, 29: 1, 5: 1, 16: 1, 8: 7}","[5, 8, 11, 16, 29]",5187113161291
Na3VBAsO7,mp-755361,2.2396000000000003,1.66844463,0.021450095652473244,"{11: 3, 23: 1, 5: 1, 33: 1, 8: 7}","[5, 8, 11, 23, 33]",5187113231331
Na3CrBAsO7,mp-771974,2.178,0.99233874,0.020753601236263464,"{11: 3, 24: 1, 5: 1, 33: 1, 8: 7}","[5, 8, 11, 24, 33]",5187113241331
Na3MnBAsO7,mp-770765,1.4399,1.10343035,0.016846963616045763,"{11: 3, 25: 1, 5: 1, 33: 1, 8: 7}","[5, 8, 11, 25, 33]",5187113251331
Na3FeBAsO7,mp-771393,2.0654,1.49244239,0.030033047390109147,"{11: 3, 26: 1, 5: 1, 33: 1, 8: 7}","[5, 8, 11, 26, 33]",5187113261331
Na3CoBAsO7,mp-771066,0.3547999999999998,1.61578713,0.07760305198260564,"{11: 3, 27: 1, 5: 1, 33: 1, 8: 7}","[5, 8, 11, 27, 33]",5187113271331
Na3NiBAsO7,mp-771271,0.0,1.46252421,0.1007166237087942,"{11: 3, 28: 1, 5: 1, 33: 1, 8: 7}","[5, 8, 11, 28, 33]",5187113281331
Na3CuBAsO7,mp-772722,0.0,1.26155609,0.06026279963598924,"{11: 3, 29: 1, 5: 1, 33: 1, 8: 7}","[5, 8, 11, 29, 33]",5187113291331
Na3BSbAsO7,mp-770738,2.7266000000000004,2.0692752,0.055300465801281895,"{11: 3, 5: 1, 51: 1, 33: 1, 8: 7}","[5, 8, 11, 33, 51]",5187113331511
Na3BiBAsO7,mp-770475,3.0877,1.38390932,0.022576822807113928,"{11: 3, 83: 1, 5: 1, 33: 1, 8: 7}","[5, 8, 11, 33, 83]",5187113331831
KMg6BO7,mp-1031257,2.1174999999999997,4.38263828,0.566959332175756,"{19: 1, 12: 6, 5: 1, 8: 7}","[5, 8, 12, 19]",5187126191
RbMg6BO7,mp-1033689,0.0,4.34338751,0.6458406776969694,"{37: 1, 12: 6, 5: 1, 8: 7}","[5, 8, 12, 37]",5187126371
CsMg6BO7,mp-1098281,1.5829,4.93238891,0.2774928593176593,"{55: 1, 12: 6, 5: 1, 8: 7}","[5, 8, 12, 55]",5187126551