formula,material_id,band_gap,efermi,energy_above_hull,comp_atoms,sorted_keys_comp_atoms,comp_number
Ni43(GeB4)3,mp-1220773,0.0,8.07936873,0.011472416896545212,"{28: 43, 32: 3, 5: 12}","[5, 28, 32]",5122843323
VB,mp-9973,0.0,7.54884625,0.0,"{23: 1, 5: 1}","[5, 23]",51231
V5Ge3B,mp-1106398,0.0,7.82953522,0.0,"{23: 5, 32: 3, 5: 1}","[5, 23, 32]",51235323
SrLaB12,mp-1218188,0.0,6.89445247,0.0,"{38: 1, 57: 1, 5: 12}","[5, 38, 57]",512381571
SrSmB12,mp-1217758,0.0,5.79647265,0.0,"{38: 1, 62: 1, 5: 12}","[5, 38, 62]",512381621
YB12,mp-7817,0.0,5.73668124,0.0,"{39: 1, 5: 12}","[5, 39]",512391
YU2(BRh)12,mp-1216402,0.0,8.16777044,0.054708854331996015,"{39: 1, 92: 2, 5: 12, 45: 12}","[5, 39, 45, 92]",5123914512922
SmYB12,mp-1218969,0.0,6.56289937,0.015929086071428955,"{62: 1, 39: 1, 5: 12}","[5, 39, 62]",512391621
ZrB12,mp-1084,0.0,7.01851369,0.02063499115384282,"{40: 1, 5: 12}","[5, 40]",512401
CrB,mp-1080664,0.0,8.55124396,0.0,"{24: 1, 5: 1}","[5, 24]",51241
CrCoB,mp-1226217,0.0,7.11034244,0.08203478416666599,"{24: 1, 27: 1, 5: 1}","[5, 24, 27]",51241271
CrCuB,mp-1100441,0.0,6.1690203,0.5401955608333342,"{24: 1, 29: 1, 5: 1}","[5, 24, 29]",51241291
CrBW,mp-1226225,0.0,7.49354751,0.11915862750000272,"{24: 1, 5: 1, 74: 1}","[5, 24, 74]",51241741
Hf(Nb2B3)4,mp-1224510,0.0,7.37284468,0.006436147619037769,"{72: 1, 41: 8, 5: 12}","[5, 41, 72]",512418721
Cr2B,mp-15809,0.0,7.56991724,0.06716988333333163,"{24: 2, 5: 1}","[5, 24]",51242
Cr4B,mp-1226275,0.0,6.5315607,0.30313661650000157,"{24: 4, 5: 1}","[5, 24]",51244
MnB,mp-8365,0.0,7.6099241,0.0,"{25: 1, 5: 1}","[5, 25]",51251
MnFeB,mp-1221654,0.0,7.08867953,0.047462143333333984,"{25: 1, 26: 1, 5: 1}","[5, 25, 26]",51251261
MnCoB,mp-1221661,0.0,7.06390029,0.035679645833334384,"{25: 1, 27: 1, 5: 1}","[5, 25, 27]",51251271
Mn2B,mp-20318,0.0,7.60206213,0.09845301683908225,"{25: 2, 5: 1}","[5, 25]",51252
Mn4B,mp-1221769,0.0,6.58341193,0.10306404682758696,"{25: 4, 5: 1}","[5, 25]",51254
Mn5BPd15,mp-1221871,0.0,4.56602788,0.009898589285712411,"{25: 5, 5: 1, 46: 15}","[5, 25, 46]",512554615
BaLaB12,mp-1227841,0.0,6.75269501,0.0,"{56: 1, 57: 1, 5: 12}","[5, 56, 57]",512561571
Ba7(BIr)12,mp-27261,0.0,5.07296469,0.0,"{56: 7, 5: 12, 77: 12}","[5, 56, 77]",5125677712
LaCeB12,mp-1222912,0.0,8.39956937,0.0,"{57: 1, 58: 1, 5: 12}","[5, 57, 58]",512571581
LaSmB12,mp-1222703,0.0,7.6114413,0.0,"{57: 1, 62: 1, 5: 12}","[5, 57, 62]",512571621
LaEuB12,mp-1222902,0.0,7.2234733,0.0,"{57: 1, 63: 1, 5: 12}","[5, 57, 63]",512571631
LaGdB12,mp-1222806,0.0,7.46219943,0.0,"{57: 1, 64: 1, 5: 12}","[5, 57, 64]",512571641
LaTmB12,mp-1222699,0.0,7.67294702,0.04342405531250115,"{57: 1, 69: 1, 5: 12}","[5, 57, 69]",512571691
CeSmB12,mp-1226503,0.0,7.34954159,0.0013214650000001882,"{58: 1, 62: 1, 5: 12}","[5, 58, 62]",512581621
CeEuB12,mp-1226734,0.0,6.77515212,0.0,"{58: 1, 63: 1, 5: 12}","[5, 58, 63]",512581631
CeThB12,mp-1226486,0.0,8.49518418,0.0,"{58: 1, 90: 1, 5: 12}","[5, 58, 90]",512581901
Ce8Re13B12,mp-1202101,0.0,8.34712151,0.0,"{58: 8, 75: 13, 5: 12}","[5, 58, 75]",5125887513
PrB12,mp-1004753,0.0,5.54305186,0.06963110730769095,"{59: 1, 5: 12}","[5, 59]",512591
PrSmB12,mp-1219729,0.0,6.54948053,0.0,"{59: 1, 62: 1, 5: 12}","[5, 59, 62]",512591621
NdB12,mp-1004756,0.0,5.53475422,0.07411886807692092,"{60: 1, 5: 12}","[5, 60]",512601
NdEuB12,mp-1220180,0.0,5.93144774,0.0,"{60: 1, 63: 1, 5: 12}","[5, 60, 63]",512601631
FeB,mp-1007881,0.0,7.81118761,0.0,"{26: 1, 5: 1}","[5, 26]",51261
FeCoB,mp-1224984,0.0,6.69035314,0.017585127222223385,"{26: 1, 27: 1, 5: 1}","[5, 26, 27]",51261271
FeCo2B,mp-1188282,0.0,6.47485928,0.032175657499999843,"{26: 1, 27: 2, 5: 1}","[5, 26, 27]",51261272
YFeCo3B,mp-1101797,0.0,5.12532471,0.0,"{39: 1, 26: 1, 27: 3, 5: 1}","[5, 26, 27, 39]",51261273391
NdFeCo3B,mp-1102704,0.0,5.1552893,0.0011128635174406654,"{60: 1, 26: 1, 27: 3, 5: 1}","[5, 26, 27, 60]",51261273601
FeNiB,mp-1224960,0.0,7.95963575,0.053248711388887315,"{26: 1, 28: 1, 5: 1}","[5, 26, 28]",51261281
Y2FeB,mp-631661,0.0,4.81783518,0.9469059474999995,"{39: 2, 26: 1, 5: 1}","[5, 26, 39]",51261392
NbFeB,mp-1080817,0.0,6.30622192,0.0,"{41: 1, 26: 1, 5: 1}","[5, 26, 41]",51261411
NdYFe14B,mp-1220544,0.0,4.67281579,0.005081508915440125,"{60: 1, 39: 1, 26: 14, 5: 1}","[5, 26, 39, 60]",512614391601
YErFe14B,mp-1216335,0.0,4.69636522,0.0019475830882367262,"{39: 1, 68: 1, 26: 14, 5: 1}","[5, 26, 39, 68]",512614391681
YThFe14B,mp-1216311,0.0,5.35687293,0.0,"{39: 1, 90: 1, 26: 14, 5: 1}","[5, 26, 39, 90]",512614391901
Y2Fe14B,mp-5434,0.0,4.57470698,0.0,"{39: 2, 26: 14, 5: 1}","[5, 26, 39]",512614392
La2Fe14B,mp-1198085,0.0,6.13779123,0.020006130882354256,"{57: 2, 26: 14, 5: 1}","[5, 26, 57]",512614572
Ce2Fe14B,mp-4459,0.0,5.7459265,0.019358251323531306,"{58: 2, 26: 14, 5: 1}","[5, 26, 58]",512614582
PrNdFe14B,mp-1219983,0.0,4.82240931,0.008558391115196962,"{59: 1, 60: 1, 26: 14, 5: 1}","[5, 26, 59, 60]",512614591601
PrErFe14B,mp-1220557,0.0,4.71912666,0.017470671960783335,"{59: 1, 68: 1, 26: 14, 5: 1}","[5, 26, 59, 68]",512614591681
Pr2Fe14B,mp-569428,0.0,4.60357875,0.014300920931373362,"{59: 2, 26: 14, 5: 1}","[5, 26, 59]",512614592
TbNdFe14B,mp-1217651,0.0,4.71915878,0.00490234707720294,"{65: 1, 60: 1, 26: 14, 5: 1}","[5, 26, 60, 65]",512614601651
NdDyFe14B,mp-1220576,0.0,4.71412768,0.0,"{60: 1, 66: 1, 26: 14, 5: 1}","[5, 26, 60, 66]",512614601661
NdHoFe14B,mp-1220477,0.0,4.76672643,0.007393103988970751,"{60: 1, 67: 1, 26: 14, 5: 1}","[5, 26, 60, 67]",512614601671
NdErFe14B,mp-1220643,0.0,4.6780972,0.00826225000000047,"{60: 1, 68: 1, 26: 14, 5: 1}","[5, 26, 60, 68]",512614601681
Nd2Fe14B,mp-5182,0.0,4.5586106,0.001119763713234967,"{60: 2, 26: 14, 5: 1}","[5, 26, 60]",512614602
Sm2Fe14B,mp-1196306,0.0,4.69804216,0.0,"{62: 2, 26: 14, 5: 1}","[5, 26, 62]",512614622
Gd2Fe14B,mp-1198327,0.0,4.66390486,0.0,"{64: 2, 26: 14, 5: 1}","[5, 26, 64]",512614642
Tb2Fe14B,mp-5759,0.0,4.5684077,0.0,"{65: 2, 26: 14, 5: 1}","[5, 26, 65]",512614652
DyErFe14B,mp-1226057,0.0,4.67403469,0.0015279084558805778,"{66: 1, 68: 1, 26: 14, 5: 1}","[5, 26, 66, 68]",512614661681
DyTmFe14B,mp-1225933,0.0,4.70491732,0.002003658088234772,"{66: 1, 69: 1, 26: 14, 5: 1}","[5, 26, 66, 69]",512614661691
DyThFe14B,mp-1226066,0.0,5.36395277,0.0,"{66: 1, 90: 1, 26: 14, 5: 1}","[5, 26, 66, 90]",512614661901
Dy2Fe14B,mp-4023,0.0,4.71827493,0.0,"{66: 2, 26: 14, 5: 1}","[5, 26, 66]",512614662
Ho2Fe14B,mp-14698,0.0,4.5258309,0.0,"{67: 2, 26: 14, 5: 1}","[5, 26, 67]",512614672
ErThFe14B,mp-1226123,0.0,5.3286629,0.0022815211029403315,"{68: 1, 90: 1, 26: 14, 5: 1}","[5, 26, 68, 90]",512614681901
Er2Fe14B,mp-3680,0.0,4.53240458,0.0,"{68: 2, 26: 14, 5: 1}","[5, 26, 68]",512614682
Tm2Fe14B,mp-5861,0.0,4.51577697,0.0,"{69: 2, 26: 14, 5: 1}","[5, 26, 69]",512614692
Lu2Fe14B,mp-4214,0.0,4.50975894,0.0,"{71: 2, 26: 14, 5: 1}","[5, 26, 71]",512614712
Th2Fe14B,mp-1198402,0.0,5.98999241,0.0,"{90: 2, 26: 14, 5: 1}","[5, 26, 90]",512614902
TaFeB,mp-1080089,0.0,6.79310488,0.0,"{73: 1, 26: 1, 5: 1}","[5, 26, 73]",51261731
FeBW,mp-1103093,0.0,7.68349079,0.0,"{26: 1, 5: 1, 74: 1}","[5, 26, 74]",51261741
FeReB,mp-1224854,0.0,7.58873845,0.08631008972221998,"{26: 1, 75: 1, 5: 1}","[5, 26, 75]",51261751
Fe2B,mp-1915,0.0,6.65516448,0.0,"{26: 2, 5: 1}","[5, 26]",51262
SmB12,mp-1004525,0.0,5.48935095,0.038252772692306536,"{62: 1, 5: 12}","[5, 62]",512621
Mg(B6C)2,mp-568803,2.1397000000000004,6.12411503,0.0,"{12: 1, 5: 12, 6: 2}","[5, 6, 12]",51262121
SmEuB12,mp-1219071,0.0,6.04692511,0.0,"{62: 1, 63: 1, 5: 12}","[5, 62, 63]",512621631
SmGdB12,mp-1218985,0.0,6.33254329,0.0,"{62: 1, 64: 1, 5: 12}","[5, 62, 64]",512621641
SmThB12,mp-1218983,0.0,7.58181016,5.231571428510051e-05,"{62: 1, 90: 1, 5: 12}","[5, 62, 90]",512621901
SmFe2Co2B,mp-1219073,0.0,4.68289523,0.011425475666664298,"{62: 1, 26: 2, 27: 2, 5: 1}","[5, 26, 27, 62]",51262272621
DyFe2Co2B,mp-1225817,0.0,4.91929889,0.0,"{66: 1, 26: 2, 27: 2, 5: 1}","[5, 26, 27, 66]",51262272661
ErFe2Co2B,mp-1225877,0.0,4.79098158,0.027952440583331573,"{68: 1, 26: 2, 27: 2, 5: 1}","[5, 26, 27, 68]",51262272681
LuFe2Co2B,mp-1222555,0.0,4.90887767,0.008039811874996694,"{71: 1, 26: 2, 27: 2, 5: 1}","[5, 26, 27, 71]",51262272711
Fe2NiB,mp-1105860,0.0,7.17385218,0.04819584187499881,"{26: 2, 28: 1, 5: 1}","[5, 26, 28]",51262281
SmFe2Ni2B,mp-1219126,0.0,5.57481742,0.6344733575000001,"{62: 1, 26: 2, 28: 2, 5: 1}","[5, 26, 28, 62]",51262282621
Fe3B,mp-973682,0.0,5.96112184,0.017157454375000825,"{26: 3, 5: 1}","[5, 26]",51263
EuB12,mp-1096955,0.0,5.20679951,0.10249230115384478,"{63: 1, 5: 12}","[5, 63]",512631
EuTmB12,mp-1225132,0.0,6.12449551,0.0325660660267868,"{63: 1, 69: 1, 5: 12}","[5, 63, 69]",512631691
GdB12,mp-1006223,0.0,5.10453662,0.01760216653846136,"{64: 1, 5: 12}","[5, 64]",512641
GdFe4B,mp-1102349,0.0,4.64384532,0.012172791318677767,"{64: 1, 26: 4, 5: 1}","[5, 26, 64]",51264641
ErFe4B,mp-3045,0.0,4.96793269,0.0,"{68: 1, 26: 4, 5: 1}","[5, 26, 68]",51264681
TmFe4B,mp-1102205,0.0,4.85595133,0.0,"{69: 1, 26: 4, 5: 1}","[5, 26, 69]",51264691
LuFe4B,mp-1101759,0.0,4.89328462,0.0,"{71: 1, 26: 4, 5: 1}","[5, 26, 71]",51264711
UFe4B,mp-1207921,0.0,8.54749596,0.06831433625000649,"{92: 1, 26: 4, 5: 1}","[5, 26, 92]",51264921
TbB12,mp-1104066,0.0,5.65854177,0.0,"{65: 1, 5: 12}","[5, 65]",512651
DyB12,mp-1103476,0.0,5.66366173,0.0,"{66: 1, 5: 12}","[5, 66]",512661
Pr2Fe6Co8B,mp-1199281,0.0,4.98215181,0.033620508847248765,"{59: 2, 26: 6, 27: 8, 5: 1}","[5, 26, 27, 59]",51266278592
Dy2Fe6Co8B,mp-1198179,0.0,4.89551404,0.02183449446691199,"{66: 2, 26: 6, 27: 8, 5: 1}","[5, 26, 27, 66]",51266278662
HoB12,mp-1104585,0.0,5.64952656,0.0,"{67: 1, 5: 12}","[5, 67]",512671
ErB12,mp-1104598,0.0,5.67024088,0.0,"{68: 1, 5: 12}","[5, 68]",512681
TmB12,mp-1104905,0.0,5.66578808,0.0,"{69: 1, 5: 12}","[5, 69]",512691
CoB,mp-20857,0.0,7.45021879,0.0,"{27: 1, 5: 1}","[5, 27]",51271
LuB12,mp-1104289,0.0,5.68758028,0.0,"{71: 1, 5: 12}","[5, 71]",512711
GdCoNi3B,mp-1102353,0.0,6.10276618,0.9103207606666635,"{64: 1, 27: 1, 28: 3, 5: 1}","[5, 27, 28, 64]",51271283641
CoBMo,mp-21347,0.0,8.0979496,0.0024559533333334826,"{27: 1, 5: 1, 42: 1}","[5, 27, 42]",51271421
NdYCo14B,mp-1220235,0.0,4.97532788,0.0,"{60: 1, 39: 1, 27: 14, 5: 1}","[5, 27, 39, 60]",512714391601
Y2Co14B,mp-1200125,0.0,4.96997016,0.0,"{39: 2, 27: 14, 5: 1}","[5, 27, 39]",512714392
La2Co14B,mp-1197631,0.0,6.49169639,0.026666843167568288,"{57: 2, 27: 14, 5: 1}","[5, 27, 57]",512714572
PrNdCo14B,mp-1219868,0.0,5.03686443,0.0011550499264707526,"{59: 1, 60: 1, 27: 14, 5: 1}","[5, 27, 59, 60]",512714591601
Pr2Co14B,mp-1197003,0.0,5.09272201,0.0,"{59: 2, 27: 14, 5: 1}","[5, 27, 59]",512714592
TbNdCo14B,mp-1217550,0.0,5.02248574,0.0,"{65: 1, 60: 1, 27: 14, 5: 1}","[5, 27, 60, 65]",512714601651
Nd2Co14B,mp-4164,0.0,4.82046679,0.008447319705867429,"{60: 2, 27: 14, 5: 1}","[5, 27, 60]",512714602
Sm2Co14B,mp-1195895,0.0,4.88886608,0.0,"{62: 2, 27: 14, 5: 1}","[5, 27, 62]",512714622
Tb2Co14B,mp-1196092,0.0,4.97596234,0.0,"{65: 2, 27: 14, 5: 1}","[5, 27, 65]",512714652
TaCoB,mp-1193187,0.0,6.78240169,0.0,"{73: 1, 27: 1, 5: 1}","[5, 27, 73]",51271731
CoBW,mp-22759,0.0,7.59706448,0.0,"{27: 1, 5: 1, 74: 1}","[5, 27, 74]",51271741
CoReB,mp-21464,0.0,8.13712115,0.008917875833333255,"{27: 1, 75: 1, 5: 1}","[5, 27, 75]",51271751
Co2B,mp-493,0.0,6.8287012,0.023685056666666426,"{27: 2, 5: 1}","[5, 27]",51272
HfB12,mp-1001600,0.0,7.23419016,0.05643777115383841,"{72: 1, 5: 12}","[5, 72]",512721
GdCo2Ni2B,mp-1225353,0.0,5.59869343,0.022984317166667267,"{64: 1, 27: 2, 28: 2, 5: 1}","[5, 27, 28, 64]",51272282641
Co3B,mp-20373,0.0,5.99285586,0.017804337499999434,"{27: 3, 5: 1}","[5, 27]",51273
SmCo3NiB,mp-1103082,0.0,5.42283835,0.3309636347618987,"{62: 1, 27: 3, 28: 1, 5: 1}","[5, 27, 28, 62]",51273281621
Co4B,mp-1226103,0.0,5.91872688,0.05670506599999925,"{27: 4, 5: 1}","[5, 27]",51274
B12W,mp-1001602,0.0,7.64580402,0.28236336602564194,"{5: 12, 74: 1}","[5, 74]",512741
YCo4B,mp-10463,0.0,4.97177958,0.008564608092104464,"{39: 1, 27: 4, 5: 1}","[5, 27, 39]",51274391
LaCo4B,mp-1095566,0.0,7.11036484,0.019673982005812718,"{57: 1, 27: 4, 5: 1}","[5, 27, 57]",51274571
CeCo4B,mp-21878,0.0,6.91499608,0.052262459791664106,"{58: 1, 27: 4, 5: 1}","[5, 27, 58]",51274581
PrCo4B,mp-11610,0.0,5.03029475,0.02838616088709678,"{59: 1, 27: 4, 5: 1}","[5, 27, 59]",51274591
NdCo4B,mp-3689,0.0,4.97064771,0.021331891656974022,"{60: 1, 27: 4, 5: 1}","[5, 27, 60]",51274601
SmCo4B,mp-1102597,0.0,5.11718891,0.011845197401971319,"{62: 1, 27: 4, 5: 1}","[5, 27, 62]",51274621
GdCo4B,mp-13268,0.0,5.09720911,0.005880115196010394,"{64: 1, 27: 4, 5: 1}","[5, 27, 64]",51274641
TbCo4B,mp-1102265,0.0,5.18217315,0.009287253072916002,"{65: 1, 27: 4, 5: 1}","[5, 27, 65]",51274651
DyCo4B,mp-1103593,0.0,5.13375282,0.010079246363630112,"{66: 1, 27: 4, 5: 1}","[5, 27, 66]",51274661
HoCo4B,mp-1103652,0.0,5.02371457,0.012575242878780202,"{67: 1, 27: 4, 5: 1}","[5, 27, 67]",51274671
ErCo4B,mp-1103089,0.0,5.07128352,0.015426827171712176,"{68: 1, 27: 4, 5: 1}","[5, 27, 68]",51274681
TmCo4B,mp-1102752,0.0,5.04286797,0.015668136217949602,"{69: 1, 27: 4, 5: 1}","[5, 27, 69]",51274691
LuCo4B,mp-1210782,0.0,4.94413888,0.020768879958334985,"{71: 1, 27: 4, 5: 1}","[5, 27, 71]",51274711
UCo4B,mp-1103581,0.0,8.28483404,0.028661780000009074,"{92: 1, 27: 4, 5: 1}","[5, 27, 92]",51274921
NiB,mp-14019,0.0,9.34900673,0.0018463106250017347,"{28: 1, 5: 1}","[5, 28]",51281
Cs(BO)12,mp-1192281,0.0,-1.8075696,1.0771028385218084,"{55: 1, 5: 12, 8: 12}","[5, 8, 55]",512812551
UB12O13,mp-1194333,0.3621,0.86354805,1.2455542985336514,"{92: 1, 5: 12, 8: 13}","[5, 8, 92]",512813921
NbNiB,mp-9985,0.0,6.84558963,0.004139907988504277,"{41: 1, 28: 1, 5: 1}","[5, 28, 41]",51281411
NiBTe,mp-631540,0.0,8.5929363,0.932724487881945,"{28: 1, 5: 1, 52: 1}","[5, 28, 52]",51281521
TaNiB,mp-1076987,0.0,7.32545797,0.0036753742816131307,"{73: 1, 28: 1, 5: 1}","[5, 28, 73]",51281731
NiBiB,mp-631538,0.0,7.38675086,1.0101724454861118,"{28: 1, 83: 1, 5: 1}","[5, 28, 83]",51281831
Cs2B12OF12,mp-729572,0.26890000000000003,-0.49945259,0.3830256877983551,"{55: 2, 5: 12, 8: 1, 9: 12}","[5, 8, 9, 55]",51281912552
Ni2B,mp-2536,0.0,8.79724342,0.0,"{28: 2, 5: 1}","[5, 28]",51282
K3Na(B3O5)4,mp-1224582,5.3008999999999995,4.92429068,0.002398689344127014,"{19: 3, 11: 1, 5: 12, 8: 20}","[5, 8, 11, 19]",512820111193
Na2Co2(B4O7)3,mp-704577,3.3019,1.47560785,0.08151724969969365,"{11: 2, 27: 2, 5: 12, 8: 21}","[5, 8, 11, 27]",512821112272
Na2Ni2(B4O7)3,mp-704915,3.5425000000000004,1.33299544,0.0,"{11: 2, 28: 2, 5: 12, 8: 21}","[5, 8, 11, 28]",512821112282
Na2Cu2(B4O7)3,mp-1203872,0.6782000000000001,1.83228346,0.006171458693692955,"{11: 2, 29: 2, 5: 12, 8: 21}","[5, 8, 11, 29]",512821112292
Mg(BO2)12,mp-1201208,0.0,-1.5522478,0.27445252085585814,"{12: 1, 5: 12, 8: 24}","[5, 8, 12]",512824121
B12Pb6O25,mp-1200351,1.4325,3.7807231,0.06165274853820524,"{5: 12, 82: 6, 8: 25}","[5, 8, 82]",512825826
Ti5(B6O13)2,mp-684065,0.0,6.35970744,0.03286720604263493,"{22: 5, 5: 12, 8: 26}","[5, 8, 22]",512826225
Ba2Nd2Al3(B4O9)3,mp-1202625,0.0,5.86246563,0.2725431072586524,"{56: 2, 60: 2, 13: 3, 5: 12, 8: 27}","[5, 8, 13, 56, 60]",512827133562602
Ce2B12Br2O27,mp-1228669,0.0,0.21616825,0.24024111639535306,"{58: 2, 5: 12, 35: 2, 8: 27}","[5, 8, 35, 58]",512827352582
Pr2B12Br2O27,mp-1220740,0.3813,-0.02864931,0.16301106421511413,"{59: 2, 5: 12, 35: 2, 8: 27}","[5, 8, 35, 59]",512827352592
Ni3B,mp-2058,0.0,8.20622743,0.0,"{28: 3, 5: 1}","[5, 28]",51283
K2Co(B2O5)6,mp-1181383,0.04919999999999991,-1.20371772,0.4837134599321118,"{19: 2, 27: 1, 5: 12, 8: 30}","[5, 8, 19, 27]",512830192271
LaNi3B,mp-1205795,0.0,8.10757474,0.0,"{57: 1, 28: 3, 5: 1}","[5, 28, 57]",51283571
Ba8Al10B12O41,mp-1019529,4.4373,1.51860367,0.0,"{56: 8, 13: 10, 5: 12, 8: 41}","[5, 8, 13, 56]",5128411310568
YNi4B,mp-7559,0.0,6.73267423,0.0,"{39: 1, 28: 4, 5: 1}","[5, 28, 39]",51284391
LaNi4B,mp-4634,0.0,8.71276714,0.0,"{57: 1, 28: 4, 5: 1}","[5, 28, 57]",51284571
CeNi4B,mp-1095459,0.0,8.49498204,0.0,"{58: 1, 28: 4, 5: 1}","[5, 28, 58]",51284581
PrNi4B,mp-1101772,0.0,6.67804133,0.0,"{59: 1, 28: 4, 5: 1}","[5, 28, 59]",51284591
NdNi4B,mp-8048,0.0,6.70389057,0.0,"{60: 1, 28: 4, 5: 1}","[5, 28, 60]",51284601
SmNi4B,mp-1102220,0.0,6.42890003,0.899428706024306,"{62: 1, 28: 4, 5: 1}","[5, 28, 62]",51284621
EuNi4B,mp-1103796,0.0,6.19228458,0.0,"{63: 1, 28: 4, 5: 1}","[5, 28, 63]",51284631
GdNi4B,mp-1102948,0.0,6.49740355,0.0,"{64: 1, 28: 4, 5: 1}","[5, 28, 64]",51284641
TbNi4B,mp-12964,0.0,6.7066691,0.0,"{65: 1, 28: 4, 5: 1}","[5, 28, 65]",51284651
DyNi4B,mp-1102346,0.0,6.65367865,0.0,"{66: 1, 28: 4, 5: 1}","[5, 28, 66]",51284661
HoNi4B,mp-10398,0.0,6.41000025,0.0,"{67: 1, 28: 4, 5: 1}","[5, 28, 67]",51284671
ErNi4B,mp-12965,0.0,6.67137683,0.0,"{68: 1, 28: 4, 5: 1}","[5, 28, 68]",51284681
TmNi4B,mp-10129,0.0,6.6546835,0.0,"{69: 1, 28: 4, 5: 1}","[5, 28, 69]",51284691
LuNi4B,mp-1101842,0.0,6.56366389,0.0,"{71: 1, 28: 4, 5: 1}","[5, 28, 71]",51284711
Ni6Ge2B,mp-1078540,0.0,8.41618002,0.0,"{28: 6, 32: 2, 5: 1}","[5, 28, 32]",51286322
SrB12O7,mp-1189346,0.8162,1.55905414,0.7718150875833762,"{38: 1, 5: 12, 8: 7}","[5, 8, 38]",51287381
In2Ni7B,mp-1224457,0.0,7.21184577,0.4762423098333315,"{49: 2, 28: 7, 5: 1}","[5, 28, 49]",51287492
ThB12,mp-12570,0.0,7.25664081,0.02804835038461384,"{90: 1, 5: 12}","[5, 90]",512901
CuBSe2,mp-983565,1.487,4.97317333,0.0,"{29: 1, 5: 1, 34: 2}","[5, 29, 34]",51291342
ZrCuB,mp-1100435,0.2591999999999999,4.91472103,0.342317545256412,"{40: 1, 29: 1, 5: 1}","[5, 29, 40]",51291401
CuBIr,mp-28896,0.0,7.54958171,0.0,"{29: 1, 5: 1, 77: 1}","[5, 29, 77]",51291771
Cs3B12AsF18,mp-1203209,2.384,-0.47552092,0.25751901664215726,"{55: 3, 5: 12, 33: 1, 9: 18}","[5, 9, 33, 55]",512918331553
UB12,mp-22319,0.0,7.88469628,0.0,"{92: 1, 5: 12}","[5, 92]",512921
NpB12,mp-1103809,0.0,8.15932994,0.0,"{93: 1, 5: 12}","[5, 93]",512931
PuB12,mp-1104892,0.0,7.82479716,0.0,"{94: 1, 5: 12}","[5, 94]",512941
ZnBSe2,mp-631528,0.0,4.66596709,1.5398544802604182,"{30: 1, 5: 1, 34: 2}","[5, 30, 34]",51301342
Zn2BIr2,mp-28787,0.0,6.17836617,0.0,"{30: 2, 5: 1, 77: 2}","[5, 30, 77]",51302772
Zn3B,mp-971859,0.0,4.14110592,0.6166455127083337,"{30: 3, 5: 1}","[5, 30]",51303
Ga2BSb,mp-631553,0.0,5.2202724,0.9977435483333323,"{31: 2, 5: 1, 51: 1}","[5, 31, 51]",51312511
Ga3B,mp-1184351,0.0,3.33823631,0.5120426958333333,"{31: 3, 5: 1}","[5, 31]",51313
Al2Cu11B13,mp-1215060,0.0,7.33965644,0.6798339241346145,"{13: 2, 29: 11, 5: 13}","[5, 13, 29]",5131322911
Ta5Ga3B,mp-1208348,0.0,5.65905405,0.0,"{73: 5, 31: 3, 5: 1}","[5, 31, 73]",51313735
B13P,mp-1228630,0.0,4.57062911,0.11884821470238194,"{5: 13, 15: 1}","[5, 15]",513151
B13P2,mp-13862,0.0,5.36077042,0.9580476367222239,"{5: 13, 15: 2}","[5, 15]",513152
Ga8BIr4,mp-28924,0.0,5.67897991,0.0,"{31: 8, 5: 1, 77: 4}","[5, 31, 77]",51318774
GeB,mp-1184565,0.0,5.48480439,0.550217262916668,"{32: 1, 5: 1}","[5, 32]",51321
In2GeB,mp-631527,0.0,6.99861587,0.9178466289583334,"{49: 2, 32: 1, 5: 1}","[5, 32, 49]",51321492
Nb5Ge2B,mp-1189789,0.0,5.50653391,0.2303099591666662,"{41: 5, 32: 2, 5: 1}","[5, 32, 41]",51322415
BaGe2B,mp-631556,0.0,4.18114695,1.1891622895312515,"{56: 1, 32: 2, 5: 1}","[5, 32, 56]",51322561
Ta5Ge2B,mp-1218007,0.0,6.07818146,0.251008404062496,"{73: 5, 32: 2, 5: 1}","[5, 32, 73]",51322735
Ge3B,mp-1184555,0.0,6.23275034,0.9841349989583339,"{32: 3, 5: 1}","[5, 32]",51323
Nb5Ge3B,mp-1105818,0.0,6.95828949,0.0,"{41: 5, 32: 3, 5: 1}","[5, 32, 41]",51323415
Tb5Ge3B,mp-1190063,0.0,4.130251,0.14177109658334786,"{65: 5, 32: 3, 5: 1}","[5, 32, 65]",51323655
Dy5Ge3B,mp-1181755,0.0,4.1224625,0.13170280756944308,"{66: 5, 32: 3, 5: 1}","[5, 32, 66]",51323665
Ta5Ge3B,mp-1189895,0.0,7.63792024,0.0015612477777793288,"{73: 5, 32: 3, 5: 1}","[5, 32, 73]",51323735
Y4CoB13,mp-504861,0.0,5.89721887,0.11921641833334551,"{39: 4, 27: 1, 5: 13}","[5, 27, 39]",513271394
Gd4CoB13,mp-1198624,0.0,5.48449659,0.15722556793981113,"{64: 4, 27: 1, 5: 13}","[5, 27, 64]",513271644
Tb4CoB13,mp-22573,0.0,5.77901892,0.1266363183333361,"{65: 4, 27: 1, 5: 13}","[5, 27, 65]",513271654