formula,material_id,band_gap,efermi,energy_above_hull,comp_atoms,sorted_keys_comp_atoms,comp_number
Eu3(BO3)2,mp-505346,0.4588000000000001,5.11797073,0.0,"{63: 3, 5: 2, 8: 6}","[5, 8, 63]",5286633
Hg3(BO3)2,mp-4710,2.629,-0.56912701,0.0,"{80: 3, 5: 2, 8: 6}","[5, 8, 80]",5286803
KZn2CdB2O6F,mp-1192840,2.7164,0.13789096,0.0,"{19: 1, 30: 2, 48: 1, 5: 2, 8: 6, 9: 1}","[5, 8, 9, 19, 30, 48]",528691191302481
U(BO3)2,mp-31013,2.266,0.52339836,0.0034899057407464795,"{92: 1, 5: 2, 8: 6}","[5, 8, 92]",5286921
Sm3B2(O2F)3,mp-1208857,5.538399999999999,7.15323876,0.006883591785717513,"{62: 3, 5: 2, 8: 6, 9: 3}","[5, 8, 9, 62]",528693623
Eu3B2(O2F)3,mp-1213384,0.0,0.94143243,0.006636492619049861,"{63: 3, 5: 2, 8: 6, 9: 3}","[5, 8, 9, 63]",528693633
Gd3B2(O2F)3,mp-669375,2.8409000000000004,1.70492351,0.014843367619041814,"{64: 3, 5: 2, 8: 6, 9: 3}","[5, 8, 9, 64]",528693643
Dy5B2(O2F3)3,mp-1203431,5.960999999999999,1.18508766,0.003921370113636691,"{66: 5, 5: 2, 8: 6, 9: 9}","[5, 8, 9, 66]",528699665
Ho5B2(O2F3)3,mp-1203766,6.0236,7.15922696,0.017331564999998328,"{67: 5, 5: 2, 8: 6, 9: 9}","[5, 8, 9, 67]",528699675
Er5B2(O2F3)3,mp-1199169,5.9864,7.07776999,0.022032946818185906,"{68: 5, 5: 2, 8: 6, 9: 9}","[5, 8, 9, 68]",528699685
Tm5B2(O2F3)3,mp-1199949,6.0317,7.17485947,0.0,"{69: 5, 5: 2, 8: 6, 9: 9}","[5, 8, 9, 69]",528699695
Na2Al2B2O7,mp-554041,4.3384,0.6070832,0.0,"{11: 2, 13: 2, 5: 2, 8: 7}","[5, 8, 11, 13]",5287112132
Na2Y2B2O7,mp-6331,4.3727,1.80316224,0.0043740552670943345,"{11: 2, 39: 2, 5: 2, 8: 7}","[5, 8, 11, 39]",5287112392
Na2Nd2B2O7,mp-1210464,4.421099999999999,6.01916646,0.0,"{11: 2, 60: 2, 5: 2, 8: 7}","[5, 8, 11, 60]",5287112602
Na2Sm2B2O7,mp-1210364,4.5183,6.09592726,0.0,"{11: 2, 62: 2, 5: 2, 8: 7}","[5, 8, 11, 62]",5287112622
Na2Eu2B2O7,mp-1210559,0.0037000000000000366,1.65955513,0.08713317942306276,"{11: 2, 63: 2, 5: 2, 8: 7}","[5, 8, 11, 63]",5287112632
Na2Gd2B2O7,mp-583646,2.8545,1.66449109,0.0,"{11: 2, 64: 2, 5: 2, 8: 7}","[5, 8, 11, 64]",5287112642
Na2Er2B2O7,mp-555104,4.3493,1.7752414,0.0,"{11: 2, 68: 2, 5: 2, 8: 7}","[5, 8, 11, 68]",5287112682
MgB2O7,mp-1198135,0.0,-0.69840187,0.5105981125833257,"{12: 1, 5: 2, 8: 7}","[5, 8, 12]",5287121
MgUB2O7,mp-557384,2.2225,1.02767963,0.0,"{12: 1, 92: 1, 5: 2, 8: 7}","[5, 8, 12, 92]",5287121921
K2Al2B2O7,mp-560217,4.5949,0.08516108,0.0,"{19: 2, 13: 2, 5: 2, 8: 7}","[5, 8, 13, 19]",5287132192
CaAl2B2O7,mp-557689,4.8228,0.6123952,0.0,"{20: 1, 13: 2, 5: 2, 8: 7}","[5, 8, 13, 20]",5287132201
Rb2Al2B2O7,mp-559284,4.1788,0.33127506,0.0,"{37: 2, 13: 2, 5: 2, 8: 7}","[5, 8, 13, 37]",5287132372
SrAl2B2O7,mp-558669,4.6876999999999995,0.26801732,0.0,"{38: 1, 13: 2, 5: 2, 8: 7}","[5, 8, 13, 38]",5287132381
Cs2Al2B2O7,mp-1019602,4.2490000000000006,0.89327426,0.0,"{55: 2, 13: 2, 5: 2, 8: 7}","[5, 8, 13, 55]",5287132552
BaAl2B2O7,mp-9844,4.6477,0.12226831,0.0,"{56: 1, 13: 2, 5: 2, 8: 7}","[5, 8, 13, 56]",5287132561
Ca2SiB2O7,mp-752851,5.6806,2.89556316,0.014285273472223636,"{20: 2, 14: 1, 5: 2, 8: 7}","[5, 8, 14, 20]",5287141202
K2Fe2B2O7,mp-1195799,2.4615,-0.17059564,0.025064175641022146,"{19: 2, 26: 2, 5: 2, 8: 7}","[5, 8, 19, 26]",5287192262
K2Ga2B2O7,mp-561525,3.7999,-0.41009479,0.0,"{19: 2, 31: 2, 5: 2, 8: 7}","[5, 8, 19, 31]",5287192312
K2La2B2O7,mp-1019777,4.2027,3.0659331,0.0,"{19: 2, 57: 2, 5: 2, 8: 7}","[5, 8, 19, 57]",5287192572
CaGaBiB2O7,mp-1227107,3.6637000000000004,3.36783101,0.0,"{20: 1, 31: 1, 83: 1, 5: 2, 8: 7}","[5, 8, 20, 31, 83]",5287201311831
CaBi2B2O7,mp-557371,3.1706,2.90075419,0.00906881197915066,"{20: 1, 83: 2, 5: 2, 8: 7}","[5, 8, 20, 83]",5287201832
ZnBi2B2O7,mp-555880,2.5197999999999996,3.12582373,0.0,"{30: 1, 83: 2, 5: 2, 8: 7}","[5, 8, 30, 83]",5287301832
Zn4B2O7,mp-686042,1.8634000000000002,0.02572981,0.08905654076923142,"{30: 4, 5: 2, 8: 7}","[5, 8, 30]",5287304
Rb2Ga2B2O7,mp-560010,3.6744999999999997,-0.35432233,0.0,"{37: 2, 31: 2, 5: 2, 8: 7}","[5, 8, 31, 37]",5287312372
SrGa2B2O7,mp-556046,3.9722,0.85821037,0.0,"{38: 1, 31: 2, 5: 2, 8: 7}","[5, 8, 31, 38]",5287312381
Cs2Ga2B2O7,mp-556330,3.7986,0.16198838,0.0,"{55: 2, 31: 2, 5: 2, 8: 7}","[5, 8, 31, 55]",5287312552
BaGa2B2O7,mp-560870,3.9841999999999995,0.80062278,0.0,"{56: 1, 31: 2, 5: 2, 8: 7}","[5, 8, 31, 56]",5287312561
B2Se2O7,mp-558521,3.9417999999999997,0.64758017,0.0,"{5: 2, 34: 2, 8: 7}","[5, 8, 34]",5287342
SrBi2B2O7,mp-558323,2.804,3.15248196,0.010034433472216442,"{38: 1, 83: 2, 5: 2, 8: 7}","[5, 8, 38, 83]",5287381832
B2Pb4O7,mp-1203040,2.4544999999999995,5.33179666,0.0,"{5: 2, 82: 4, 8: 7}","[5, 8, 82]",5287824
Bi2B2O7,mp-756526,0.0,3.3337728,0.08709635325757681,"{83: 2, 5: 2, 8: 7}","[5, 8, 83]",5287832
AlB2Pb6(OF)7,mp-1229224,2.963,3.1862658,0.04499987269927708,"{13: 1, 5: 2, 82: 6, 8: 7, 9: 7}","[5, 8, 9, 13, 82]",528797131826
MgNb2(BO4)2,mp-2219183,0.3564999999999996,6.16489953,0.2516495280563227,"{12: 1, 41: 2, 5: 2, 8: 8}","[5, 8, 12, 41]",5288121412
Mg3Ti(BO4)2,mp-1222241,2.2988,2.88260726,0.012193285892826644,"{12: 3, 22: 1, 5: 2, 8: 8}","[5, 8, 12, 22]",5288123221
MnAlB2(PbO4)2,mp-1221830,0.29110000000000014,4.26507281,0.0015288613392865358,"{25: 1, 13: 1, 5: 2, 82: 2, 8: 8}","[5, 8, 13, 25, 82]",5288131251822
YMn2Al(BO4)2,mp-1216172,2.6991000000000005,3.33844981,0.06025190938095548,"{39: 1, 25: 2, 13: 1, 5: 2, 8: 8}","[5, 8, 13, 25, 39]",5288131252391
AlFeB2(PbO4)2,mp-1229147,1.932,3.51172033,0.0045617445535706125,"{13: 1, 26: 1, 5: 2, 82: 2, 8: 8}","[5, 8, 13, 26, 82]",5288131261822
CaSi2(BO4)2,mp-6419,5.6644000000000005,2.29934372,0.0010242946794907226,"{20: 1, 14: 2, 5: 2, 8: 8}","[5, 8, 14, 20]",5288142201
SrSi2(BO4)2,mp-6032,5.4873,1.9663824,0.0,"{38: 1, 14: 2, 5: 2, 8: 8}","[5, 8, 14, 38]",5288142381
BaSi2(BO4)2,mp-555387,5.5233,1.72666201,0.0,"{56: 1, 14: 2, 5: 2, 8: 8}","[5, 8, 14, 56]",5288142561
Ca(BO4)2,mp-1181911,0.0,-1.02332952,0.5646572015909124,"{20: 1, 5: 2, 8: 8}","[5, 8, 20]",5288201
TiCo3(BO4)2,mp-1217061,1.4874,3.20634634,0.23740784446428442,"{22: 1, 27: 3, 5: 2, 8: 8}","[5, 8, 22, 27]",5288221273
ZrCo3(BO4)2,mp-1215312,1.3204000000000002,2.9687773,0.3959380750000001,"{40: 1, 27: 3, 5: 2, 8: 8}","[5, 8, 27, 40]",5288273401
Nd2Ge(BO4)2,mp-1197137,4.5233,2.49273116,0.0,"{60: 2, 32: 1, 5: 2, 8: 8}","[5, 8, 32, 60]",5288321602
Sm2Ge(BO4)2,mp-1203325,4.5889999999999995,6.75737545,0.0,"{62: 2, 32: 1, 5: 2, 8: 8}","[5, 8, 32, 62]",5288321622
Eu2Ge(BO4)2,mp-1019739,0.0,2.19242846,0.02256442878205256,"{63: 2, 32: 1, 5: 2, 8: 8}","[5, 8, 32, 63]",5288321632
Gd2Ge(BO4)2,mp-1196136,3.1837999999999997,5.34773133,0.01402926391024728,"{64: 2, 32: 1, 5: 2, 8: 8}","[5, 8, 32, 64]",5288321642
Tb2Ge(BO4)2,mp-1204495,4.6023000000000005,6.93931249,0.0,"{65: 2, 32: 1, 5: 2, 8: 8}","[5, 8, 32, 65]",5288321652
SrGe2(BO4)2,mp-1020611,3.8130999999999995,0.96462816,0.011907617115369362,"{38: 1, 32: 2, 5: 2, 8: 8}","[5, 8, 32, 38]",5288322381
Sr(BO4)2,mp-1204298,0.2245999999999999,-1.22966695,0.5482555245454668,"{38: 1, 5: 2, 8: 8}","[5, 8, 38]",5288381
Ba(BO4)2,mp-1201084,0.0,-1.57166306,0.6945156744318064,"{56: 1, 5: 2, 8: 8}","[5, 8, 56]",5288561
Al4B2O9,mp-1247923,3.4532000000000003,6.69419999,0.2556826335769067,"{13: 4, 5: 2, 8: 9}","[5, 8, 13]",5289134
B2S2O9,mp-1019509,6.6956,0.06310031,0.0,"{5: 2, 16: 2, 8: 9}","[5, 8, 16]",5289162
CaB2O9,mp-1182308,0.0,-0.77137902,0.6854814828124978,"{20: 1, 5: 2, 8: 9}","[5, 8, 20]",5289201
Ga4B2O9,mp-1224948,2.6854999999999998,1.42401421,0.033512404666666384,"{31: 4, 5: 2, 8: 9}","[5, 8, 31]",5289314
Pr2B2MoO9,mp-556474,3.3843,1.41695622,0.00875284803571219,"{59: 2, 5: 2, 42: 1, 8: 9}","[5, 8, 42, 59]",5289421592
BaB2O9,mp-1196854,0.09729999999999994,-1.53205628,0.7817268191666713,"{56: 1, 5: 2, 8: 9}","[5, 8, 56]",5289561
Bi4B2O9,mp-23356,2.8354,4.02982584,0.0,"{83: 4, 5: 2, 8: 9}","[5, 8, 83]",5289834
CdB2XeF10,mp-559282,2.8874,-0.57728493,0.0,"{48: 1, 5: 2, 54: 1, 9: 10}","[5, 9, 48, 54]",52910481541
Na2B29,mp-29953,0.0,4.71893179,0.05517210636774106,"{11: 2, 5: 29}","[5, 11]",529112
UB2,mp-1514,0.0,11.96911857,0.0,"{92: 1, 5: 2}","[5, 92]",52921
B2F3,mp-1205212,2.4177,-2.13229024,0.1683912704791668,"{5: 2, 9: 3}","[5, 9]",5293
NpB2,mp-1083,0.0,13.44838168,0.0,"{93: 1, 5: 2}","[5, 93]",52931
PuB2,mp-580,0.0,11.7119878,0.019714249583330457,"{94: 1, 5: 2}","[5, 94]",52941
CaB2F8,mp-12146,8.3113,-3.32516401,0.0,"{20: 1, 5: 2, 9: 8}","[5, 9, 20]",5298201
MnB2F8,mp-17727,3.6621,-1.0125069,0.0,"{25: 1, 5: 2, 9: 8}","[5, 9, 25]",5298251
SrB2F8,mp-556106,8.145199999999999,-3.80044311,0.0,"{38: 1, 5: 2, 9: 8}","[5, 9, 38]",5298381
CdB2F8,mp-557364,5.4624,-3.42247457,0.0,"{48: 1, 5: 2, 9: 8}","[5, 9, 48]",5298481
BaB2F8,mp-558430,8.0511,-2.61481884,0.0,"{56: 1, 5: 2, 9: 8}","[5, 9, 56]",5298561
Rb18Mg6B29O58F,mp-1200013,3.8247,0.06367341,0.0,"{37: 18, 12: 6, 5: 29, 8: 58, 9: 1}","[5, 8, 9, 12, 37]",529858911263718
Ca(Er2B15)2,mp-1227415,0.0,6.33261623,0.04904243300000033,"{20: 1, 68: 4, 5: 30}","[5, 20, 68]",530201684
Ta11(Co52B15)2,mp-1217955,0.0,6.13349814,0.0,"{73: 11, 27: 104, 5: 30}","[5, 27, 73]",530271047311
Ba13B30(PbO30)2,mp-1229148,4.0522,0.82371106,0.010210675619045873,"{56: 13, 5: 30, 82: 2, 8: 60}","[5, 8, 56, 82]",5308605613822
Na4B3Cl,mp-1221191,0.0,0.91135005,1.5671004781616382,"{11: 4, 5: 3, 17: 1}","[5, 11, 17]",53114171
MgB3,mp-1222002,0.0,3.63554436,0.4735807987499996,"{12: 1, 5: 3}","[5, 12]",53121
Mg4B3Ir2,mp-1222183,0.0,4.64577778,0.0,"{12: 4, 5: 3, 77: 2}","[5, 12, 77]",53124772
SiB3,mp-569128,1.4080000000000004,5.28319771,0.0,"{14: 1, 5: 3}","[5, 14]",53141
Nb10(SiB)3,mp-1220752,0.0,6.16947639,0.01122228687499316,"{41: 10, 14: 3, 5: 3}","[5, 14, 41]",531434110
Si3B3W10,mp-1219326,0.0,8.66696538,0.0667655375000038,"{14: 3, 5: 3, 74: 10}","[5, 14, 74]",531437410
Tl3B3S10,mp-17823,1.8863000000000003,3.09136515,0.0,"{81: 3, 5: 3, 16: 10}","[5, 16, 81]",531610813
La2B3Cl,mp-569121,0.0,8.40018995,0.0,"{57: 2, 5: 3, 17: 1}","[5, 17, 57]",53171572
Pr2B3Cl,mp-567730,0.0,6.10824659,0.31130390630952043,"{59: 2, 5: 3, 17: 1}","[5, 17, 59]",53171592
VCoB3,mp-10057,0.0,8.26970993,0.0,"{23: 1, 27: 1, 5: 3}","[5, 23, 27]",53231271
V2B3,mp-9208,0.0,8.4520879,0.0,"{23: 2, 5: 3}","[5, 23]",53232
V5B3,mp-1188836,0.0,6.48645153,0.057914717187498965,"{23: 5, 5: 3}","[5, 23]",53235
Cr2B3,mp-12054,0.0,8.80764971,0.045477424666666266,"{24: 2, 5: 3}","[5, 24]",53242
Cr2(BW)3,mp-1226102,0.0,7.92252296,0.09659346937500146,"{24: 2, 5: 3, 74: 3}","[5, 24, 74]",53242743
Cr2B3Os,mp-1226478,0.0,8.73972222,0.13699559375000092,"{24: 2, 5: 3, 76: 1}","[5, 24, 76]",53242761
Cr5B3,mp-15617,0.0,7.83437859,0.0419593625000001,"{24: 5, 5: 3}","[5, 24]",53245
Fe(BRh2)3,mp-1225537,0.0,6.8713422,0.0034719007500019217,"{26: 1, 5: 3, 45: 6}","[5, 26, 45]",53261456
Sm2Fe17B3,mp-1190200,0.0,4.79669525,0.08502051887310724,"{62: 2, 26: 17, 5: 3}","[5, 26, 62]",532617622
Nd2Fe23B3,mp-568158,0.0,4.88295615,0.00853260979910786,"{60: 2, 26: 23, 5: 3}","[5, 26, 60]",532623602
Co(BMo)3,mp-1104546,0.0,8.85369442,0.0,"{27: 1, 5: 3, 42: 3}","[5, 27, 42]",53271423
Co(BRh2)3,mp-1226641,0.0,6.90926389,0.016992745499997852,"{27: 1, 5: 3, 45: 6}","[5, 27, 45]",53271456
Gd2CoB3,mp-1224781,0.0,4.78741773,0.13349496116666515,"{64: 2, 27: 1, 5: 3}","[5, 27, 64]",53271642
Co(BW)3,mp-27768,0.0,8.3250791,0.0,"{27: 1, 5: 3, 74: 3}","[5, 27, 74]",53271743
Nd2Co23B3,mp-1210590,0.0,5.38520543,0.01994881309254204,"{60: 2, 27: 23, 5: 3}","[5, 27, 60]",532723602
Y2Co7B3,mp-1190692,0.0,5.42671531,0.001509286962712686,"{39: 2, 27: 7, 5: 3}","[5, 27, 39]",53277392
Ce2Co7B3,mp-504616,0.0,7.36030303,0.01970690697916755,"{58: 2, 27: 7, 5: 3}","[5, 27, 58]",53277582
Pr2Co7B3,mp-3867,0.0,5.48858878,0.03245456052755369,"{59: 2, 27: 7, 5: 3}","[5, 27, 59]",53277592
Nd2Co7B3,mp-582394,0.0,5.43555639,0.02259377619670211,"{60: 2, 27: 7, 5: 3}","[5, 27, 60]",53277602
Sm2Co7B3,mp-505207,0.0,5.44215602,0.016320948737757135,"{62: 2, 27: 7, 5: 3}","[5, 27, 62]",53277622
Tb2Co7B3,mp-1191177,0.0,5.46957537,0.0010380782031207403,"{65: 2, 27: 7, 5: 3}","[5, 27, 65]",53277652
Dy2Co7B3,mp-569158,0.0,5.30997019,0.0020435510984793126,"{66: 2, 27: 7, 5: 3}","[5, 27, 66]",53277662
Ho2Co7B3,mp-976597,0.0,5.24938393,0.0037221251893875262,"{67: 2, 27: 7, 5: 3}","[5, 27, 67]",53277672
Er2Co7B3,mp-1190704,0.0,5.23445379,0.00521501816918768,"{68: 2, 27: 7, 5: 3}","[5, 27, 68]",53277682
Tm2Co7B3,mp-1190854,0.0,5.11291326,0.006540279775641977,"{69: 2, 27: 7, 5: 3}","[5, 27, 69]",53277692
Ni(BMo)3,mp-1105036,0.0,9.37699127,0.0,"{28: 1, 5: 3, 42: 3}","[5, 28, 42]",53281423
Ni(BW)3,mp-1104181,0.0,8.79051293,0.0,"{28: 1, 5: 3, 74: 3}","[5, 28, 74]",53281743
CeNi2B3,mp-1226793,0.0,7.80441218,0.12678639152776494,"{58: 1, 28: 2, 5: 3}","[5, 28, 58]",53282581
Ni4B3,mp-640067,0.0,9.16743106,0.0,"{28: 4, 5: 3}","[5, 28]",53284
La2(Ni2B)3,mp-1223681,0.0,8.38582019,0.12692067948617058,"{57: 2, 28: 6, 5: 3}","[5, 28, 57]",53286572
ErNi7B3,mp-31130,0.0,7.65967314,0.0,"{68: 1, 28: 7, 5: 3}","[5, 28, 68]",53287681
Ni8Ge2B3,mp-22703,0.0,8.83659927,0.0,"{28: 8, 32: 2, 5: 3}","[5, 28, 32]",53288322
Cu2B3Ir4,mp-1225826,0.0,8.78612965,0.0,"{29: 2, 5: 3, 77: 4}","[5, 29, 77]",53292774
ZnB3Ir4,mp-579677,0.0,8.41223744,0.0,"{30: 1, 5: 3, 77: 4}","[5, 30, 77]",53301774
Zn5B3Rh7,mp-510697,0.0,5.54898814,0.0,"{30: 5, 5: 3, 45: 7}","[5, 30, 45]",53305457
Zn5B3Ir7,mp-1238725,0.0,6.8485605,0.0,"{30: 5, 5: 3, 77: 7}","[5, 30, 77]",53305777
Cs3B3Se10,mp-1196535,1.7936,1.37869628,0.0,"{55: 3, 5: 3, 34: 10}","[5, 34, 55]",533410553
Tl3B3Se10,mp-542058,1.3101000000000003,2.46153021,0.002668514777774078,"{81: 3, 5: 3, 34: 10}","[5, 34, 81]",533410813
La2B3Br,mp-568985,0.0,8.03887832,0.0,"{57: 2, 5: 3, 35: 1}","[5, 35, 57]",53351572
Nb2B3,mp-1080021,0.0,7.80005746,0.0,"{41: 2, 5: 3}","[5, 41]",53412
B3Mo,mp-1080111,0.0,7.45676016,0.002544879374999809,"{5: 3, 42: 1}","[5, 42]",53421
DyB3Mo,mp-1206856,0.0,6.91739954,0.0,"{66: 1, 5: 3, 42: 1}","[5, 42, 66]",53421661
HoB3Mo,mp-1205558,0.0,6.85476731,0.0,"{67: 1, 5: 3, 42: 1}","[5, 42, 67]",53421671
ErB3Mo,mp-5426,0.0,6.90713288,0.0,"{68: 1, 5: 3, 42: 1}","[5, 42, 68]",53421681
Tc7B3,mp-978989,0.0,8.74787478,0.0,"{43: 7, 5: 3}","[5, 43]",53437
U4(BRu4)3,mp-1216857,0.0,9.60860663,0.005815977894734203,"{92: 4, 5: 3, 44: 12}","[5, 44, 92]",534412924
B3Ru2,mp-13854,0.0,8.43365585,0.0,"{5: 3, 44: 2}","[5, 44]",53442
B3Ru7,mp-17535,0.0,8.40883721,0.03460237399999855,"{5: 3, 44: 7}","[5, 44]",53447
Pr4(BRh4)3,mp-1219901,0.0,5.50694969,0.04057491078947084,"{59: 4, 5: 3, 45: 12}","[5, 45, 59]",534512594
B3Rh7,mp-1106065,0.0,6.93587886,0.012482750499998474,"{5: 3, 45: 7}","[5, 45]",53457
B3Pd16,mp-1196893,0.0,4.47780626,0.0,"{5: 3, 46: 16}","[5, 46]",534616
Sn4B3Ir7,mp-28999,0.0,9.43660567,0.0,"{50: 4, 5: 3, 77: 7}","[5, 50, 77]",53504777
PrB3,mp-16762,0.0,5.49553993,0.4788088281249987,"{59: 1, 5: 3}","[5, 59]",53591
B3C10N3,mp-642462,0.17209999999999992,3.96878864,0.5900396796874983,"{5: 3, 6: 10, 7: 3}","[5, 6, 7]",5361073
PmB3,mp-862984,0.0,5.40482175,0.0,"{61: 1, 5: 3}","[5, 61]",53611
Y4Fe4Co12B3C,mp-1216386,0.0,5.38764092,0.010514978248109763,"{39: 4, 26: 4, 27: 12, 5: 3, 6: 1}","[5, 6, 26, 27, 39]",53612642712394
Nd4Fe4Co12B3C,mp-1220278,0.0,5.31923216,0.009395868817828834,"{60: 4, 26: 4, 27: 12, 5: 3, 6: 1}","[5, 6, 26, 27, 60]",53612642712604
Y4Co16B3C,mp-1216253,0.0,5.25155337,0.01809206803179464,"{39: 4, 27: 16, 5: 3, 6: 1}","[5, 6, 27, 39]",53612716394
Nb3B3C,mp-29979,0.0,7.45160365,0.018052289285718004,"{41: 3, 5: 3, 6: 1}","[5, 6, 41]",5361413
Ba5B3CNO9,mp-560326,3.3351,1.32570309,0.022954233355259923,"{56: 5, 5: 3, 6: 1, 7: 1, 8: 9}","[5, 6, 7, 8, 56]",53617189565
Ca4Mn3B3CO15,mp-532650,1.4971000000000005,2.99513436,0.0,"{20: 4, 25: 3, 5: 3, 6: 1, 8: 15}","[5, 6, 8, 20, 25]",5361815204253
Y2B3C2,mp-29896,0.0,5.25910663,0.0,"{39: 2, 5: 3, 6: 2}","[5, 6, 39]",5362392
Nb4B3C2,mp-29980,0.0,7.38545146,0.050205160277780436,"{41: 4, 5: 3, 6: 2}","[5, 6, 41]",5362414
Gd2B3C2,mp-28702,0.0,4.93516061,0.0,"{64: 2, 5: 3, 6: 2}","[5, 6, 64]",5362642
Mn23(BC)3,mp-1222106,0.0,6.9109562,0.008207707116524077,"{25: 23, 5: 3, 6: 3}","[5, 6, 25]",53632523
Fe23(BC)3,mp-1224758,0.0,6.10342673,0.03413354318965567,"{26: 23, 5: 3, 6: 3}","[5, 6, 26]",53632623
B3C3N7,mp-1246452,3.5976999999999997,-2.51104288,0.3932768676923093,"{5: 3, 6: 3, 7: 7}","[5, 6, 7]",536377
Gd4B3C4,mp-29821,0.0,4.54251876,0.0,"{64: 4, 5: 3, 6: 4}","[5, 6, 64]",5364644
Tm4B3C4,mp-1095577,0.0,4.81187063,0.0,"{69: 4, 5: 3, 6: 4}","[5, 6, 69]",5364694
Lu4B3C4,mp-567908,0.0,4.80904977,0.0,"{71: 4, 5: 3, 6: 4}","[5, 6, 71]",5364714
U4B3C5,mp-1216723,0.0,11.37129945,0.003155470833331009,"{92: 4, 5: 3, 6: 5}","[5, 6, 92]",5365924
Mg3Si9B36C,mp-1222229,1.0420000000000007,5.72168316,0.0,"{12: 3, 14: 9, 5: 36, 6: 1}","[5, 6, 12, 14]",53661123149
Dy2Si9B36C,mp-1225372,1.1721999999999992,6.61601066,0.0,"{66: 2, 14: 9, 5: 36, 6: 1}","[5, 6, 14, 66]",53661149662
Tm2Si9B36C,mp-1216853,1.2088999999999999,6.635513,0.0,"{69: 2, 14: 9, 5: 36, 6: 1}","[5, 6, 14, 69]",53661149692
Lu2Si9B36C,mp-1222448,1.2246000000000006,6.64560413,0.0,"{71: 2, 14: 9, 5: 36, 6: 1}","[5, 6, 14, 71]",53661149712
La9B3C6Br5,mp-624186,0.0,7.4716006,0.0,"{57: 9, 5: 3, 6: 6, 35: 5}","[5, 6, 35, 57]",5366355579
Ce9B3C6Br5,mp-680283,0.0,6.9492658,0.0,"{58: 9, 5: 3, 6: 6, 35: 5}","[5, 6, 35, 58]",5366355589
La9B3C6I5,mp-679979,0.0,7.96362309,0.0,"{57: 9, 5: 3, 6: 6, 53: 5}","[5, 6, 53, 57]",5366535579
CaB3(CO)6,mp-1214927,0.03459999999999974,-2.74237407,1.5396978010351523,"{20: 1, 5: 3, 6: 6, 8: 6}","[5, 6, 8, 20]",536686201
B36O5,mp-32715,2.3416000000000006,5.14984137,0.01648529121951281,"{5: 36, 8: 5}","[5, 8]",53685
Cr46(BC3)3,mp-1227102,0.0,7.40959266,0.022102358017239254,"{24: 46, 5: 3, 6: 9}","[5, 6, 24]",53692446
Fe46(BC3)3,mp-1226402,0.0,6.21834896,0.05008365064655251,"{26: 46, 5: 3, 6: 9}","[5, 6, 26]",53692646
B3Pb3NO10,mp-1200969,3.0129,5.13730163,0.0,"{5: 3, 82: 3, 7: 1, 8: 10}","[5, 7, 8, 82]",5371810823
Sr7SiB3NO13,mp-1256705,0.6242000000000001,3.23918273,0.15142381262499072,"{38: 7, 14: 1, 5: 3, 7: 1, 8: 13}","[5, 7, 8, 14, 38]",5371813141387
Ba7SiB3NO13,mp-1256464,0.6212,2.78672547,0.12272391509999103,"{56: 7, 14: 1, 5: 3, 7: 1, 8: 13}","[5, 7, 8, 14, 56]",5371813141567
AlB3N4,mp-1019379,3.5993000000000004,7.30784222,0.3607763212499986,"{13: 1, 5: 3, 7: 4}","[5, 7, 13]",5374131
GaB3N4,mp-1019740,3.7109000000000005,6.50225485,0.39972472500000045,"{31: 1, 5: 3, 7: 4}","[5, 7, 31]",5374311
ReB3,mp-7839,0.0,9.54851755,1.1507634181250026,"{75: 1, 5: 3}","[5, 75]",53751
UReB3,mp-28607,0.0,9.76326062,0.0,"{92: 1, 75: 1, 5: 3}","[5, 75, 92]",53751921
Ca3B3N5,mp-1245874,2.6709000000000005,4.46653828,0.2411546109090903,"{20: 3, 5: 3, 7: 5}","[5, 7, 20]",5375203
Sr3B3N5,mp-1029490,2.2454,4.97370486,0.1065925892424211,"{38: 3, 5: 3, 7: 5}","[5, 7, 38]",5375383
Ba3B3N5,mp-1246449,2.0126,2.70844954,0.11307895181818317,"{56: 3, 5: 3, 7: 5}","[5, 7, 56]",5375563
Re7B3,mp-1106180,0.0,8.21885379,0.008654345300001864,"{75: 7, 5: 3}","[5, 75]",53757
NaSr4(BN2)3,mp-10811,1.9666000000000001,2.35374992,0.0,"{11: 1, 38: 4, 5: 3, 7: 6}","[5, 7, 11, 38]",5376111384
Ba4Na(BN2)3,mp-9705,2.0441,2.22650252,0.0,"{56: 4, 11: 1, 5: 3, 7: 6}","[5, 7, 11, 56]",5376111564
B3Os2,mp-1079348,0.0,8.9755723,0.0,"{5: 3, 76: 2}","[5, 76]",53762
Ca5(BN2)3,mp-1213996,0.0,5.76071359,0.03394373696428765,"{20: 5, 5: 3, 7: 6}","[5, 7, 20]",5376205
B3Ir2,mp-1228647,0.0,9.13854441,0.06085322616666744,"{5: 3, 77: 2}","[5, 77]",53772
B3Pb6ClO10,mp-560833,2.816,2.80219373,0.0,"{5: 3, 82: 6, 17: 1, 8: 10}","[5, 8, 17, 82]",53810171826
K3B3O10,mp-1181183,0.6386999999999999,-1.37751782,0.31691068906249953,"{19: 3, 5: 3, 8: 10}","[5, 8, 19]",53810193
CaB3O10,mp-1182657,0.40290000000000026,-1.74507399,0.46754912334817256,"{20: 1, 5: 3, 8: 10}","[5, 8, 20]",53810201
Ca4YB3O10,mp-1214020,4.4498,1.66218681,0.0,"{20: 4, 39: 1, 5: 3, 8: 10}","[5, 8, 20, 39]",53810204391
Ca4LaB3O10,mp-6076,4.3032,2.35756203,0.0,"{20: 4, 57: 1, 5: 3, 8: 10}","[5, 8, 20, 57]",53810204571
Ca4NdB3O10,mp-1214008,4.3686,1.6222759,0.0,"{20: 4, 60: 1, 5: 3, 8: 10}","[5, 8, 20, 60]",53810204601