formula,material_id,band_gap,efermi,energy_above_hull,comp_atoms,sorted_keys_comp_atoms,comp_number
PrB6,mp-12762,0.0,7.04511457,0.0,"{59: 1, 5: 6}","[5, 59]",56591
Pr2(ReB2)3,mp-2933,0.0,6.40394538,0.0,"{59: 2, 75: 3, 5: 6}","[5, 59, 75]",56592753
NdB6,mp-1929,0.0,6.98005805,0.0,"{60: 1, 5: 6}","[5, 60]",56601
Nd2(ReB2)3,mp-1190986,0.0,6.38490953,0.0,"{60: 2, 75: 3, 5: 6}","[5, 60, 75]",56602753
Al17(BC3)6,mp-1247832,0.0,5.6934676,0.1493587014515585,"{13: 17, 5: 6, 6: 18}","[5, 6, 13]",566181317
Nd15(B3C10)2,mp-1220622,0.0,4.72762983,0.026917339121947492,"{60: 15, 5: 6, 6: 20}","[5, 6, 60]",566206015
SmB6,mp-6996,0.0,6.83202031,0.0,"{62: 1, 5: 6}","[5, 62]",56621
Sm2(ReB2)3,mp-979418,0.0,6.21296578,0.0,"{62: 2, 75: 3, 5: 6}","[5, 62, 75]",56622753
EuB6,mp-20874,0.0,5.71145427,0.0,"{63: 1, 5: 6}","[5, 63]",56631
Th2Sc(B2C)3,mp-1208224,0.0,7.66929565,0.0,"{90: 2, 21: 1, 5: 6, 6: 3}","[5, 6, 21, 90]",5663211902
TbY2Ni6(B2C)3,mp-1217435,0.0,6.73612058,0.004487653888886278,"{65: 1, 39: 2, 28: 6, 5: 6, 6: 3}","[5, 6, 28, 39, 65]",5663286392651
Nb7(B2C)3,mp-29982,0.0,7.41514145,0.011285638906253226,"{41: 7, 5: 6, 6: 3}","[5, 6, 41]",5663417
GdB6,mp-22266,0.0,6.35612841,0.0,"{64: 1, 5: 6}","[5, 64]",56641
Gd2B6Os,mp-1202304,0.0,5.24224493,0.0,"{64: 2, 5: 6, 76: 1}","[5, 64, 76]",56642761
FeB6(CO)4,mp-818725,1.5716,-0.75298839,1.583210805173609,"{26: 1, 5: 6, 6: 4, 8: 4}","[5, 6, 8, 26]",566484261
TbB6,mp-12763,0.0,6.98565124,0.008686888839287477,"{65: 1, 5: 6}","[5, 65]",56651
Tb2ReB6,mp-1198929,0.0,5.87927185,0.0,"{65: 2, 75: 1, 5: 6}","[5, 65, 75]",56652751
Tb2B6Os,mp-1200538,0.0,6.54287987,0.0,"{65: 2, 5: 6, 76: 1}","[5, 65, 76]",56652761
DyB6,mp-568319,0.0,6.95660541,0.020764303839285958,"{66: 1, 5: 6}","[5, 66]",56661
Dy2ReB6,mp-1204645,0.0,5.87703918,0.0,"{66: 2, 75: 1, 5: 6}","[5, 66, 75]",56662751
Dy2B6Os,mp-1198294,0.0,6.54798169,0.0,"{66: 2, 5: 6, 76: 1}","[5, 66, 76]",56662761
HoB6,mp-571491,0.0,6.90347834,0.037382768571429636,"{67: 1, 5: 6}","[5, 67]",56671
Ho2ReB6,mp-1204735,0.0,5.82984179,0.0,"{67: 2, 75: 1, 5: 6}","[5, 67, 75]",56672751
Ho2B6Os,mp-1200778,0.0,6.5297809,0.0,"{67: 2, 5: 6, 76: 1}","[5, 67, 76]",56672761
ErB6,mp-1296,0.0,6.90686539,0.053575387500002236,"{68: 1, 5: 6}","[5, 68]",56681
Er2ReB6,mp-1201657,0.0,5.87798954,0.0,"{68: 2, 75: 1, 5: 6}","[5, 68, 75]",56682751
Er2B6Os,mp-1198965,0.0,6.61781275,0.0,"{68: 2, 5: 6, 76: 1}","[5, 68, 76]",56682761
TmB6,mp-571352,0.0,6.87839166,0.07931735776785587,"{69: 1, 5: 6}","[5, 69]",56691
Tm2ReB6,mp-1195760,0.0,5.84645402,0.0,"{69: 2, 75: 1, 5: 6}","[5, 69, 75]",56692751
Tm2B6Os,mp-1203429,0.0,6.60976347,0.0,"{69: 2, 5: 6, 76: 1}","[5, 69, 76]",56692761
LuB6,mp-12660,0.0,6.85195841,0.10300262901785473,"{71: 1, 5: 6}","[5, 71]",56711
Ba8Sr(BN2)6,mp-1228031,2.038,2.01731492,0.003840729465022008,"{56: 8, 38: 1, 5: 6, 7: 12}","[5, 7, 38, 56]",56712381568
Ba8Eu(BN2)6,mp-1228663,0.3669000000000002,3.70742527,0.0,"{56: 8, 63: 1, 5: 6, 7: 12}","[5, 7, 56, 63]",56712568631
Lu2ReB6,mp-1201869,0.0,5.81971871,0.0,"{71: 2, 75: 1, 5: 6}","[5, 71, 75]",56712751
Lu2B6Os,mp-1199915,0.0,6.68366794,0.0,"{71: 2, 5: 6, 76: 1}","[5, 71, 76]",56712761
NaB6NO10,mp-1201362,0.0,-1.79089487,0.3515226353009364,"{11: 1, 5: 6, 7: 1, 8: 10}","[5, 7, 8, 11]",5671810111
Na3B6NO13,mp-558548,3.2938,0.4537687,0.0,"{11: 3, 5: 6, 7: 1, 8: 13}","[5, 7, 8, 11]",5671813113
Cs2B6NO2,mp-1196353,0.5024,0.94436008,1.4474724742576237,"{55: 2, 5: 6, 7: 1, 8: 2}","[5, 7, 8, 55]",567182552
HfB6,mp-1004377,0.0,7.26637459,0.5356748404761902,"{72: 1, 5: 6}","[5, 72]",56721
Ta5B6,mp-28629,0.0,8.06647133,0.0,"{73: 5, 5: 6}","[5, 73]",56735
U2B6W,mp-1203029,0.0,10.4147553,0.0,"{92: 2, 5: 6, 74: 1}","[5, 74, 92]",56741922
U2ReB6,mp-1202234,0.0,10.7220846,0.0,"{92: 2, 75: 1, 5: 6}","[5, 75, 92]",56751922
Pu2ReB6,mp-1201365,0.0,10.71663566,0.2008772734722193,"{94: 2, 75: 1, 5: 6}","[5, 75, 94]",56751942
U2B6Os,mp-1202841,0.0,10.9732107,0.0014794705555534193,"{92: 2, 5: 6, 76: 1}","[5, 76, 92]",56761922
Pu2B6Os,mp-1205010,0.0,11.05789741,0.008731994652778852,"{94: 2, 5: 6, 76: 1}","[5, 76, 94]",56761942
Fe65(BN)6,mp-1097708,0.0,4.60808534,0.1645492712987,"{26: 65, 5: 6, 7: 6}","[5, 7, 26]",56762665
HgB6,mp-1096797,0.0,3.66363246,0.4055880399999996,"{80: 1, 5: 6}","[5, 80]",56801
B6O,mp-1346,1.8563999999999998,5.28513093,0.0,"{5: 6, 8: 1}","[5, 8]",5681
RbNa2B6ClO10,mp-1194580,5.1287,4.8675445,0.002547858681806403,"{37: 1, 11: 2, 5: 6, 17: 1, 8: 10}","[5, 8, 11, 17, 37]",56810112171371
RbNa2B6BrO10,mp-1195617,5.010599999999999,-0.15642096,0.0021374034583230284,"{37: 1, 11: 2, 5: 6, 35: 1, 8: 10}","[5, 8, 11, 35, 37]",56810112351371
Na3B6ClO10,mp-1195615,5.1851,5.18072371,0.004370080458321546,"{11: 3, 5: 6, 17: 1, 8: 10}","[5, 8, 11, 17]",56810113171
Na3B6BrO10,mp-1197987,4.726299999999999,5.1228966,0.0007070717083230704,"{11: 3, 5: 6, 35: 1, 8: 10}","[5, 8, 11, 35]",56810113351
K3B6ClO10,mp-1189091,5.3729,-0.17296158,0.0,"{19: 3, 5: 6, 17: 1, 8: 10}","[5, 8, 17, 19]",56810171193
K3B6BrO10,mp-23612,5.212000000000001,-0.08136988,0.0,"{19: 3, 5: 6, 35: 1, 8: 10}","[5, 8, 19, 35]",56810193351
Ca(B3O5)2,mp-558358,5.8213,0.37977667,0.0,"{20: 1, 5: 6, 8: 10}","[5, 8, 20]",56810201
Na2ZnB6O11,mp-1020181,4.7511,0.15868722,0.0028759504722222218,"{11: 2, 30: 1, 5: 6, 8: 11}","[5, 8, 11, 30]",56811112301
Ca2B6O11,mp-27657,5.639,1.82040674,0.0,"{20: 2, 5: 6, 8: 11}","[5, 8, 20]",56811202
Sr3B6O11F2,mp-1202821,5.4177,1.23721881,0.0,"{38: 3, 5: 6, 8: 11, 9: 2}","[5, 8, 9, 38]",5681192383
Ba3B6O11F2,mp-1195844,5.2662,1.18792598,0.0,"{56: 3, 5: 6, 8: 11, 9: 2}","[5, 8, 9, 56]",5681192563
B6Pb3O11F2,mp-1197284,3.0253999999999994,6.09613838,0.06035308042212062,"{5: 6, 82: 3, 8: 11, 9: 2}","[5, 8, 9, 82]",5681192823
Ba2Mg(BO2)6,mp-1019528,4.9106000000000005,1.03838435,0.00621195461310009,"{56: 2, 12: 1, 5: 6, 8: 12}","[5, 8, 12, 56]",56812121562
Zn3GaB6PO12,mp-39215,4.0713,2.42636108,0.0,"{30: 3, 31: 1, 5: 6, 15: 1, 8: 12}","[5, 8, 15, 30, 31]",56812151303311
KBaY(BO2)6,mp-1223465,5.3259,5.41263777,0.015872166230163742,"{19: 1, 56: 1, 39: 1, 5: 6, 8: 12}","[5, 8, 19, 39, 56]",56812191391561
Ba2Ca(BO2)6,mp-8271,4.9616,0.58409252,0.0,"{56: 2, 20: 1, 5: 6, 8: 12}","[5, 8, 20, 56]",56812201562
Ba2Mn(BO2)6,mp-18990,3.9788000000000006,1.82372392,0.0,"{56: 2, 25: 1, 5: 6, 8: 12}","[5, 8, 25, 56]",56812251562
Ba2Co(BO2)6,mp-18735,0.0,3.03798915,0.06060043519840086,"{56: 2, 27: 1, 5: 6, 8: 12}","[5, 8, 27, 56]",56812271562
Ba2Zn(BO2)6,mp-558680,4.2768999999999995,4.7717128,0.0058654419642500955,"{56: 2, 30: 1, 5: 6, 8: 12}","[5, 8, 30, 56]",56812301562
Zn4B6SeO12,mp-14921,1.8571,2.52449699,0.0,"{30: 4, 5: 6, 34: 1, 8: 12}","[5, 8, 30, 34]",56812304341
Y(BO2)6,mp-1200404,0.1572,-0.47097417,0.1249254348355251,"{39: 1, 5: 6, 8: 12}","[5, 8, 39]",56812391
Ba2Cd(BO2)6,mp-1190588,4.3316,0.69925647,0.0,"{56: 2, 48: 1, 5: 6, 8: 12}","[5, 8, 48, 56]",56812481562
Cd2B6PbO12,mp-1194787,3.5842,5.49188032,0.003335398620268215,"{48: 2, 5: 6, 82: 1, 8: 12}","[5, 8, 48, 82]",56812482821
Ba2B6PbO12,mp-1194549,4.233700000000001,1.22392774,0.0,"{56: 2, 5: 6, 82: 1, 8: 12}","[5, 8, 56, 82]",56812562821
Gd(BO2)6,mp-1202527,0.128,-0.68526359,0.13513817036183973,"{64: 1, 5: 6, 8: 12}","[5, 8, 64]",56812641
Ho(BO2)6,mp-1203590,0.12919999999999998,-0.44291389,0.1367959917105246,"{67: 1, 5: 6, 8: 12}","[5, 8, 67]",56812671
NaNdB6O13,mp-1198569,0.0,-0.41594584,0.18039682774803278,"{11: 1, 60: 1, 5: 6, 8: 13}","[5, 8, 11, 60]",56813111601
Na3B6PO13,mp-556801,4.7576,0.58575766,0.0,"{11: 3, 5: 6, 15: 1, 8: 13}","[5, 8, 11, 15]",56813113151
Na3VB6O13,mp-557235,2.9370000000000003,0.37591512,0.002842647355085326,"{11: 3, 23: 1, 5: 6, 8: 13}","[5, 8, 11, 23]",56813113231
Co4B6O13,mp-19343,3.0013,2.48375592,0.12115721743961316,"{27: 4, 5: 6, 8: 13}","[5, 8, 27]",56813274
Zn4B6O13,mp-4812,3.4134,1.66805371,0.0,"{30: 4, 5: 6, 8: 13}","[5, 8, 30]",56813304
Cd4B6O13,mp-755260,2.4314,1.33330088,0.026677115434786458,"{48: 4, 5: 6, 8: 13}","[5, 8, 48]",56813484
Sr(B3O7)2,mp-1179473,0.0,-0.20864603,0.48957151917328545,"{38: 1, 5: 6, 8: 14}","[5, 8, 38]",56814381
Bi3(B3O7)2,mp-1191820,0.018299999999999983,3.17026103,0.0694473569565206,"{83: 3, 5: 6, 8: 14}","[5, 8, 83]",56814833
NaU(B2O5)3,mp-1201797,0.2873,0.0009575,0.22974766827898652,"{11: 1, 92: 1, 5: 6, 8: 15}","[5, 8, 11, 92]",56815111921
Mg(B2O5)3,mp-868019,0.3073,-0.85649268,0.7002235793371252,"{12: 1, 5: 6, 8: 15}","[5, 8, 12]",56815121
Al4(B2O5)3,mp-31408,5.8172999999999995,1.77267999,0.0,"{13: 4, 5: 6, 8: 15}","[5, 8, 13]",56815134
Ca(B2O5)3,mp-1204348,0.03609999999999991,-0.78435157,0.5909351473295485,"{20: 1, 5: 6, 8: 15}","[5, 8, 20]",56815201
Ba3Y2(B2O5)3,mp-1019527,4.525,0.70258014,0.0,"{56: 3, 39: 2, 5: 6, 8: 15}","[5, 8, 39, 56]",56815392563
La4(B2O5)3,mp-772771,4.555999999999999,4.95929543,0.023072433839992357,"{57: 4, 5: 6, 8: 15}","[5, 8, 57]",56815574
Dy4(B2O5)3,mp-18108,5.3260999999999985,2.82190633,0.02023741360000031,"{66: 4, 5: 6, 8: 15}","[5, 8, 66]",56815664
Ho4(B2O5)3,mp-17714,5.5299,2.81612664,0.038471363949998505,"{67: 4, 5: 6, 8: 15}","[5, 8, 67]",56815674
Er4(B2O5)3,mp-772497,5.656499999999999,2.81178911,0.04140922929999924,"{68: 4, 5: 6, 8: 15}","[5, 8, 68]",56815684
Tm4(B2O5)3,mp-772919,5.492000000000001,2.72861821,0.020551646020001257,"{69: 4, 5: 6, 8: 15}","[5, 8, 69]",56815694
Lu4(B2O5)3,mp-771772,5.5478000000000005,2.72213328,0.0392940713500014,"{71: 4, 5: 6, 8: 15}","[5, 8, 71]",56815714
Bi4(B2O5)3,mp-768923,3.2042,4.53087349,0.007641579200001303,"{83: 4, 5: 6, 8: 15}","[5, 8, 83]",56815834
Mg(B3O8)2,mp-1181440,0.009399999999999853,-1.9200765,0.681782354583337,"{12: 1, 5: 6, 8: 16}","[5, 8, 12]",56816121
Ba3Si2(B3O8)2,mp-1019526,5.4031,1.96475868,0.0,"{56: 3, 14: 2, 5: 6, 8: 16}","[5, 8, 14, 56]",56816142563
Sr3Ge2(B3O8)2,mp-1020650,4.4323999999999995,1.96453542,0.0023315776851893233,"{38: 3, 32: 2, 5: 6, 8: 16}","[5, 8, 32, 38]",56816322383
Ba3Ge2(B3O8)2,mp-1194165,4.1759,1.87465826,0.0,"{56: 3, 32: 2, 5: 6, 8: 16}","[5, 8, 32, 56]",56816322563
CaMgB6O17,mp-1204390,0.0,0.21995464,0.46369905326667826,"{20: 1, 12: 1, 5: 6, 8: 17}","[5, 8, 12, 20]",56817121201
Rb4Ge3B6O17,mp-1020896,4.401199999999999,0.2551054,0.0,"{37: 4, 32: 3, 5: 6, 8: 17}","[5, 8, 32, 37]",56817323374
KNaSr8(BO3)6,mp-1223494,3.7852,5.29456769,0.009124780147063305,"{19: 1, 11: 1, 38: 8, 5: 6, 8: 18}","[5, 8, 11, 19, 38]",56818111191388
Sr2CaCu6(BO3)6,mp-1218946,0.4482000000000004,2.82291033,0.04747584674241523,"{38: 2, 20: 1, 29: 6, 5: 6, 8: 18}","[5, 8, 20, 29, 38]",56818201296382
Sr6YSc(BO3)6,mp-18043,4.4887,1.52336152,0.0,"{38: 6, 39: 1, 21: 1, 5: 6, 8: 18}","[5, 8, 21, 38, 39]",56818211386391
Fe5(BO3)6,mp-1198168,0.0,-0.36096281,0.1303339728304591,"{26: 5, 5: 6, 8: 18}","[5, 8, 26]",56818265
Ni(BO3)6,mp-1202601,0.1089,-1.78733697,0.8602168266722261,"{28: 1, 5: 6, 8: 18}","[5, 8, 28]",56818281
Ca3(B3O10)2,mp-1214604,0.15619999999999995,-0.39676423,0.5830633947413837,"{20: 3, 5: 6, 8: 20}","[5, 8, 20]",56820203
B6Pb,mp-1096825,0.9206000000000003,6.19390313,0.115100015000003,"{5: 6, 82: 1}","[5, 82]",56821
CaMg(B3O11)2,mp-1214468,0.0,-1.20718605,0.8147342733055583,"{20: 1, 12: 1, 5: 6, 8: 22}","[5, 8, 12, 20]",56822121201
Ti2Cu9(B3O11)2,mp-554562,0.05080000000000018,2.5137735,0.039434230769227696,"{22: 2, 29: 9, 5: 6, 8: 22}","[5, 8, 22, 29]",56822222299
BaY6Si3B6(O12F)2,mp-554918,5.2315000000000005,2.3060135,0.008291939880958665,"{56: 1, 39: 6, 14: 3, 5: 6, 8: 24, 9: 2}","[5, 8, 9, 14, 39, 56]",5682492143396561
BiB6,mp-1096844,0.0,6.98952482,0.3322086335714296,"{83: 1, 5: 6}","[5, 83]",56831
RbB6S2(Cl3O2)2,mp-1201123,1.8159999999999998,-0.44377802,0.5303246550927634,"{37: 1, 5: 6, 16: 2, 17: 6, 8: 4}","[5, 8, 16, 17, 37]",5684162176371
Ca10Ge16(B2O17)3,mp-1019569,2.7264,1.96985695,0.0,"{20: 10, 32: 16, 5: 6, 8: 51}","[5, 8, 20, 32]",5685120103216
Ti(BO)6,mp-1208717,0.0,2.02187602,0.7524988464102567,"{22: 1, 5: 6, 8: 6}","[5, 8, 22]",5686221
V(BO)6,mp-1208078,0.0,-3.01396115,1.6122793071794908,"{23: 1, 5: 6, 8: 6}","[5, 8, 23]",5686231
Fe(BO)6,mp-1213438,0.5643000000000002,3.55253765,0.5676401468349352,"{26: 1, 5: 6, 8: 6}","[5, 8, 26]",5686261
Ga(BO)6,mp-1212929,0.0,-4.23015195,1.7995835216826928,"{31: 1, 5: 6, 8: 6}","[5, 8, 31]",5686311
B6RhO6,mp-1214985,0.0,-3.21538713,1.3344575201041682,"{5: 6, 45: 1, 8: 6}","[5, 8, 45]",5686451
NaB6S4(Br3O4)2,mp-1196084,1.7688000000000001,-0.73658198,0.6149454276361119,"{11: 1, 5: 6, 16: 4, 35: 6, 8: 8}","[5, 8, 11, 16, 35]",5688111164356
NaB6S4(I3O4)2,mp-1205269,1.1801,0.87753387,0.6246949243444435,"{11: 1, 5: 6, 16: 4, 53: 6, 8: 8}","[5, 8, 11, 16, 53]",5688111164536
KB6S4(Cl3O4)2,mp-1200783,1.7539000000000002,-0.65058857,0.5650621837986112,"{19: 1, 5: 6, 16: 4, 17: 6, 8: 8}","[5, 8, 16, 17, 19]",5688164176191
ThB6,mp-1756,0.0,8.56450316,0.0,"{90: 1, 5: 6}","[5, 90]",56901
NpB6,mp-1025156,0.0,9.40794533,0.010547701785721841,"{93: 1, 5: 6}","[5, 93]",56931
PuB6,mp-505534,0.0,9.14793032,0.004874788303570909,"{94: 1, 5: 6}","[5, 94]",56941
KB6F6,mp-1205091,2.6471,1.97911808,0.07442318117521562,"{19: 1, 5: 6, 9: 6}","[5, 9, 19]",5696191
MgB7,mp-978275,1.4592,6.08491377,0.0,"{12: 1, 5: 7}","[5, 12]",57121
AlB7Pd15,mp-1195438,0.008399999999999963,6.18064266,0.07869569599637671,"{13: 1, 5: 7, 46: 15}","[5, 13, 46]",571314615
Pr8(BCl)7,mp-568295,0.0,4.96746268,0.0,"{59: 8, 5: 7, 17: 7}","[5, 17, 59]",57177598
Ho3CrB7,mp-31046,0.0,5.2693142,0.0,"{67: 3, 24: 1, 5: 7}","[5, 24, 67]",57241673
Er3CrB7,mp-14503,0.0,5.32699014,0.0,"{68: 3, 24: 1, 5: 7}","[5, 24, 68]",57241683
Y3MnB7,mp-1192224,0.0,5.45708076,0.0,"{39: 3, 25: 1, 5: 7}","[5, 25, 39]",57251393
Gd3MnB7,mp-976437,0.0,5.19081089,0.014823092772726199,"{64: 3, 25: 1, 5: 7}","[5, 25, 64]",57251643
Tb3MnB7,mp-1190660,0.0,5.35026613,0.0,"{65: 3, 25: 1, 5: 7}","[5, 25, 65]",57251653
Dy3MnB7,mp-14356,0.0,5.33416461,0.0,"{66: 3, 25: 1, 5: 7}","[5, 25, 66]",57251663
Ho3MnB7,mp-1191455,0.0,5.28427873,0.0,"{67: 3, 25: 1, 5: 7}","[5, 25, 67]",57251673
Er3MnB7,mp-1191003,0.0,5.26696287,0.0,"{68: 3, 25: 1, 5: 7}","[5, 25, 68]",57251683
Y3FeB7,mp-14542,0.0,5.68293011,0.0,"{39: 3, 26: 1, 5: 7}","[5, 26, 39]",57261393
Tb3FeB7,mp-972235,0.0,5.55836053,0.0,"{65: 3, 26: 1, 5: 7}","[5, 26, 65]",57261653
Dy3FeB7,mp-1192098,0.0,5.5446743,0.0,"{66: 3, 26: 1, 5: 7}","[5, 26, 66]",57261663
Ho3FeB7,mp-1192262,0.0,5.53257626,0.0,"{67: 3, 26: 1, 5: 7}","[5, 26, 67]",57261673
Er3FeB7,mp-1190715,0.0,5.51983295,0.0,"{68: 3, 26: 1, 5: 7}","[5, 26, 68]",57261683
Fe2B7,mp-1194531,0.0,7.7424467,0.007321044166666901,"{26: 2, 5: 7}","[5, 26]",57262
V2(B24C)3,mp-1217011,0.0,5.12897714,0.023342010070340535,"{23: 2, 5: 72, 6: 3}","[5, 6, 23]",57263232
Gd2(FeB)7,mp-680207,0.0,5.86938581,0.0,"{64: 2, 26: 7, 5: 7}","[5, 26, 64]",57267642
Nb3Co4B7,mp-4212,0.0,7.10167693,0.0,"{41: 3, 27: 4, 5: 7}","[5, 27, 41]",57274413
YB7Mo3,mp-504874,0.0,8.32015848,0.0,"{39: 1, 5: 7, 42: 3}","[5, 39, 42]",57391423
Y3B7W,mp-14373,0.0,5.7239621,0.0,"{39: 3, 5: 7, 74: 1}","[5, 39, 74]",57393741
Y3ReB7,mp-7625,0.0,5.63158325,0.0,"{39: 3, 75: 1, 5: 7}","[5, 39, 75]",57393751
Tb3B7Mo,mp-1208474,0.0,5.65317936,0.0,"{65: 3, 5: 7, 42: 1}","[5, 42, 65]",57421653
Dy3B7Mo,mp-1213062,0.0,5.68897117,0.0,"{66: 3, 5: 7, 42: 1}","[5, 42, 66]",57421663
Ho3B7Mo,mp-1212287,0.0,5.63285365,0.001149714545455538,"{67: 3, 5: 7, 42: 1}","[5, 42, 67]",57421673
TbB7Mo3,mp-1208351,0.0,8.30738212,0.000615412954545036,"{65: 1, 5: 7, 42: 3}","[5, 42, 65]",57423651
DyB7Mo3,mp-1212893,0.0,8.3034585,0.0,"{66: 1, 5: 7, 42: 3}","[5, 42, 66]",57423661
HoB7Mo3,mp-504877,0.0,8.24176384,0.0,"{67: 1, 5: 7, 42: 3}","[5, 42, 67]",57423671
ErB7Mo3,mp-1213140,0.0,8.28908171,0.0,"{68: 1, 5: 7, 42: 3}","[5, 42, 68]",57423681
TmB7Mo3,mp-1208003,0.0,8.23669444,0.0,"{69: 1, 5: 7, 42: 3}","[5, 42, 69]",57423691
La2Re3B7,mp-27894,0.0,8.22829955,0.0,"{57: 2, 75: 3, 5: 7}","[5, 57, 75]",57572753
Y10B7C10,mp-1207937,0.0,4.50294294,0.008508700802470237,"{39: 10, 5: 7, 6: 10}","[5, 6, 39]",576103910
Tb10B7C10,mp-570655,0.0,4.38579245,0.012586354166657543,"{65: 10, 5: 7, 6: 10}","[5, 6, 65]",576106510
Y21B7(C7I9)2,mp-680189,0.0,4.01259445,0.0,"{39: 21, 5: 7, 6: 14, 53: 18}","[5, 6, 39, 53]",5761439215318
Gd3B7W,mp-1190670,0.0,5.45168203,0.0,"{64: 3, 5: 7, 74: 1}","[5, 64, 74]",57643741
Gd3ReB7,mp-1190894,0.0,4.95230807,1.4171434591363656,"{64: 3, 75: 1, 5: 7}","[5, 64, 75]",57643751
Tb3B7W,mp-1191743,0.0,5.60445507,0.0,"{65: 3, 5: 7, 74: 1}","[5, 65, 74]",57653741
Tb3ReB7,mp-972380,0.0,5.56999659,0.0,"{65: 3, 75: 1, 5: 7}","[5, 65, 75]",57653751
Dy3B7W,mp-1191614,0.0,5.57393917,0.0,"{66: 3, 5: 7, 74: 1}","[5, 66, 74]",57663741
Dy3ReB7,mp-1190970,0.0,5.53912967,0.0,"{66: 3, 75: 1, 5: 7}","[5, 66, 75]",57663751
Ho3B7W,mp-1191254,0.0,5.52029882,0.0,"{67: 3, 5: 7, 74: 1}","[5, 67, 74]",57673741
Ho3ReB7,mp-973395,0.0,5.49166414,0.0,"{67: 3, 75: 1, 5: 7}","[5, 67, 75]",57673751
Er3B7W,mp-1191731,0.0,5.55753192,0.0,"{68: 3, 5: 7, 74: 1}","[5, 68, 74]",57683741
Er3ReB7,mp-1191966,0.0,5.51375317,0.0,"{68: 3, 75: 1, 5: 7}","[5, 68, 75]",57683751
Tm3B7W,mp-1191016,0.0,5.53537921,0.0,"{69: 3, 5: 7, 74: 1}","[5, 69, 74]",57693741
Tm3ReB7,mp-865404,0.0,5.47849142,0.0,"{69: 3, 75: 1, 5: 7}","[5, 69, 75]",57693751
Na3B7O12,mp-31073,4.9219,0.47113017,0.0,"{11: 3, 5: 7, 8: 12}","[5, 8, 11]",57812113
Rb3B7O12,mp-30127,4.3578,4.38001571,0.00440635169191772,"{37: 3, 5: 7, 8: 12}","[5, 8, 37]",57812373
SrAgB7O12,mp-554259,3.0005999999999995,1.77791326,0.0,"{38: 1, 47: 1, 5: 7, 8: 12}","[5, 8, 38, 47]",57812381471
Bi3B7O12,mp-768969,0.4014999999999995,3.8477483,0.07399976174242617,"{83: 3, 5: 7, 8: 12}","[5, 8, 83]",57812833
Mg3B7ClO13,mp-23087,5.7052,2.2875263,0.0,"{12: 3, 5: 7, 17: 1, 8: 13}","[5, 8, 12, 17]",57813123171
Mg3B7BrO13,mp-1210659,5.9459,2.23377874,0.0,"{12: 3, 5: 7, 35: 1, 8: 13}","[5, 8, 12, 35]",57813123351
Cr3B7ClO13,mp-559511,2.7626000000000004,3.84983466,0.0,"{24: 3, 5: 7, 17: 1, 8: 13}","[5, 8, 17, 24]",57813171243
Mn3B7ClO13,mp-556656,4.2082999999999995,2.69053821,0.0,"{25: 3, 5: 7, 17: 1, 8: 13}","[5, 8, 17, 25]",57813171253
Fe3B7ClO13,mp-556300,2.8149000000000006,3.55823985,0.0,"{26: 3, 5: 7, 17: 1, 8: 13}","[5, 8, 17, 26]",57813171263
Co3B7ClO13,mp-23578,2.2683000000000004,2.49089177,0.06885884699074118,"{27: 3, 5: 7, 17: 1, 8: 13}","[5, 8, 17, 27]",57813171273
Ni3B7ClO13,mp-556141,3.1031999999999997,3.4803055,0.0,"{28: 3, 5: 7, 17: 1, 8: 13}","[5, 8, 17, 28]",57813171283
Cu3B7ClO13,mp-1213325,0.13239999999999963,3.26784819,0.011694846770835099,"{29: 3, 5: 7, 17: 1, 8: 13}","[5, 8, 17, 29]",57813171293
Zn3B7ClO13,mp-23609,4.4852,1.78594714,0.0009320307031170927,"{30: 3, 5: 7, 17: 1, 8: 13}","[5, 8, 17, 30]",57813171303
KCuB7O13,mp-1199109,0.05119999999999991,1.33124428,0.29173597862688894,"{19: 1, 29: 1, 5: 7, 8: 13}","[5, 8, 19, 29]",57813191291
Cr3B7BrO13,mp-23581,2.4249,4.12942541,0.0,"{24: 3, 5: 7, 35: 1, 8: 13}","[5, 8, 24, 35]",57813243351
Cr3B7IO13,mp-558442,1.7271999999999998,4.99436916,0.0,"{24: 3, 5: 7, 53: 1, 8: 13}","[5, 8, 24, 53]",57813243531
Mn3B7BrO13,mp-560911,4.1137,2.77957769,0.0,"{25: 3, 5: 7, 35: 1, 8: 13}","[5, 8, 25, 35]",57813253351
Mn3B7IO13,mp-23566,3.8123,3.23770873,0.0,"{25: 3, 5: 7, 53: 1, 8: 13}","[5, 8, 25, 53]",57813253531
Fe3B7BrO13,mp-1181439,3.6767999999999996,2.0351188,0.0,"{26: 3, 5: 7, 35: 1, 8: 13}","[5, 8, 26, 35]",57813263351
Fe3B7IO13,mp-1194881,3.0026,2.77106425,0.0,"{26: 3, 5: 7, 53: 1, 8: 13}","[5, 8, 26, 53]",57813263531
Co3B7BrO13,mp-562349,2.146,3.46820269,0.07688987792824253,"{27: 3, 5: 7, 35: 1, 8: 13}","[5, 8, 27, 35]",57813273351
Co3B7IO13,mp-23628,2.2508999999999997,3.18665278,0.058977345949074333,"{27: 3, 5: 7, 53: 1, 8: 13}","[5, 8, 27, 53]",57813273531
Ni3B7BrO13,mp-554323,3.1527999999999996,5.73451078,0.0,"{28: 3, 5: 7, 35: 1, 8: 13}","[5, 8, 28, 35]",57813283351
Ni3B7IO13,mp-504714,2.3700000000000006,3.59314004,0.0,"{28: 3, 5: 7, 53: 1, 8: 13}","[5, 8, 28, 53]",57813283531
Cu3B7BrO13,mp-554590,0.0,3.43115042,0.01981630979166571,"{29: 3, 5: 7, 35: 1, 8: 13}","[5, 8, 29, 35]",57813293351