formula,material_id,band_gap,efermi,energy_above_hull,comp_atoms,sorted_keys_comp_atoms,comp_number
Na2B4O17,mp-1180429,0.14650000000000007,-1.59439883,0.3624039089130431,"{11: 2, 5: 4, 8: 17}","[5, 8, 11]",54817112
Al6Cu2B4O17,mp-1228556,0.48809999999999976,3.53784503,0.010528744919533928,"{13: 6, 29: 2, 5: 4, 8: 17}","[5, 8, 13, 29]",54817136292
Ho9B4O19,mp-757752,0.2656999999999998,5.5920866,0.054626699372398946,"{67: 9, 5: 4, 8: 19}","[5, 8, 67]",54819679
Mg10TiSn(BO5)4,mp-1222637,3.2487,2.98721951,0.0,"{12: 10, 22: 1, 50: 1, 5: 4, 8: 20}","[5, 8, 12, 22, 50]",548201210221501
MgV12(BO5)4,mp-1233229,0.0694000000000008,5.572527,0.13985976692005408,"{12: 1, 23: 12, 5: 4, 8: 20}","[5, 8, 12, 23]",548201212312
MgCo12(BO5)4,mp-1234270,0.0,3.50322001,0.2961460542483101,"{12: 1, 27: 12, 5: 4, 8: 20}","[5, 8, 12, 27]",548201212712
Co11B4SbO20,mp-1226643,0.0,3.66950471,0.17851156249999978,"{27: 11, 5: 4, 51: 1, 8: 20}","[5, 8, 27, 51]",548202711511
NbNi11(BO5)4,mp-1211101,0.0,4.02123102,0.0,"{41: 1, 28: 11, 5: 4, 8: 20}","[5, 8, 28, 41]",548202811411
TaNi11(BO5)4,mp-1208716,0.0,4.06238543,0.0,"{73: 1, 28: 11, 5: 4, 8: 20}","[5, 8, 28, 73]",548202811731
Ca4Ce2TiSi4(BO6)4,mp-728512,3.9650000000000003,0.41100739,0.028375832884666607,"{20: 4, 58: 2, 22: 1, 14: 4, 5: 4, 8: 24}","[5, 8, 14, 20, 22, 58]",54824144204221582
La13(B2O13)2,mp-1196229,0.0,4.70649049,0.0,"{57: 13, 5: 4, 8: 26}","[5, 8, 57]",548265713
Nd13(B2O13)2,mp-1203797,0.0,1.7537466,0.0020745589534794107,"{60: 13, 5: 4, 8: 26}","[5, 8, 60]",548266013
Mg3Al12FeSi4(BO9)4,mp-1222235,3.7922000000000002,3.43860379,0.00010161091666738287,"{12: 3, 13: 12, 26: 1, 14: 4, 5: 4, 8: 36}","[5, 8, 12, 13, 14, 26]",548361231312144261
Na2B4O7,mp-17941,4.618,0.1179451,0.0,"{11: 2, 5: 4, 8: 7}","[5, 8, 11]",5487112
MgB4O7,mp-14234,5.7433000000000005,0.60928972,0.0,"{12: 1, 5: 4, 8: 7}","[5, 8, 12]",5487121
K2B4O7,mp-17166,4.821,0.12766551,0.0,"{19: 2, 5: 4, 8: 7}","[5, 8, 19]",5487192
CaB4O7,mp-556214,6.1768,1.29259323,0.0,"{20: 1, 5: 4, 8: 7}","[5, 8, 20]",5487201
MnB4O7,mp-12209,4.7101999999999995,0.70805301,0.0,"{25: 1, 5: 4, 8: 7}","[5, 8, 25]",5487251
FeB4O7,mp-1191380,2.6797999999999997,3.74405939,0.011557017291670135,"{26: 1, 5: 4, 8: 7}","[5, 8, 26]",5487261
CoB4O7,mp-22829,3.2709,0.47738497,0.03317740144676051,"{27: 1, 5: 4, 8: 7}","[5, 8, 27]",5487271
NiB4O7,mp-557107,2.1422999999999996,3.96648379,0.011685367592596307,"{28: 1, 5: 4, 8: 7}","[5, 8, 28]",5487281
CuB4O7,mp-555093,0.19350000000000023,4.45254337,0.04718957208333663,"{29: 1, 5: 4, 8: 7}","[5, 8, 29]",5487291
ZnB4O7,mp-12233,4.6601,0.04501334,0.0,"{30: 1, 5: 4, 8: 7}","[5, 8, 30]",5487301
Rb2B4O7,mp-16980,4.594,0.26199016,0.0,"{37: 2, 5: 4, 8: 7}","[5, 8, 37]",5487372
SrB4O7,mp-5540,7.1190999999999995,3.13841072,0.006822391793981808,"{38: 1, 5: 4, 8: 7}","[5, 8, 38]",5487381
CdB4O7,mp-13603,3.9877000000000002,0.00712637,0.0,"{48: 1, 5: 4, 8: 7}","[5, 8, 48]",5487481
SnB4O7,mp-13252,3.571999999999999,5.1445037,0.0,"{50: 1, 5: 4, 8: 7}","[5, 8, 50]",5487501
BaB4O7,mp-27692,5.1593,0.8397026,0.0,"{56: 1, 5: 4, 8: 7}","[5, 8, 56]",5487561
EuB4O7,mp-8109,1.912399999999999,7.42890695,0.0,"{63: 1, 5: 4, 8: 7}","[5, 8, 63]",5487631
HgB4O7,mp-16585,2.5834,0.06105233,0.0,"{80: 1, 5: 4, 8: 7}","[5, 8, 80]",5487801
Tl2B4O7,mp-16457,3.3162000000000003,1.65228436,0.0,"{81: 2, 5: 4, 8: 7}","[5, 8, 81]",5487812
B4PbO7,mp-9747,4.208499999999999,4.54912917,0.0,"{5: 4, 82: 1, 8: 7}","[5, 8, 82]",5487821
LaB4ClO8,mp-1194424,0.0,1.44524354,0.12558115926588442,"{57: 1, 5: 4, 17: 1, 8: 8}","[5, 8, 17, 57]",5488171571
CeB4ClO8,mp-1193133,0.0,1.31831097,0.10985091744791298,"{58: 1, 5: 4, 17: 1, 8: 8}","[5, 8, 17, 58]",5488171581
PrB4ClO8,mp-1193360,0.0,0.8174858,0.10766384333333434,"{59: 1, 5: 4, 17: 1, 8: 8}","[5, 8, 17, 59]",5488171591
NdB4ClO8,mp-1194357,0.0,0.81137521,0.11441767273809234,"{60: 1, 5: 4, 17: 1, 8: 8}","[5, 8, 17, 60]",5488171601
PuB4ClO8,mp-1192622,0.0,2.68509453,0.04096450916666683,"{94: 1, 5: 4, 17: 1, 8: 8}","[5, 8, 17, 94]",5488171941
Th(BO2)4,mp-1194365,4.4289,4.229028,0.0,"{90: 1, 5: 4, 8: 8}","[5, 8, 90]",5488901
U(BO2)4,mp-1194254,0.0,7.07969332,0.036986485256406354,"{92: 1, 5: 4, 8: 8}","[5, 8, 92]",5488921
Na3GaB4O9,mp-766463,4.3701,0.75205273,0.0,"{11: 3, 31: 1, 5: 4, 8: 9}","[5, 8, 11, 31]",5489113311
Cs2SiB4O9,mp-1226151,4.8121,0.75660169,0.0,"{55: 2, 14: 1, 5: 4, 8: 9}","[5, 8, 14, 55]",5489141552
Rb2GeB4O9,mp-1020707,3.8449,0.00921541,0.0,"{37: 2, 32: 1, 5: 4, 8: 9}","[5, 8, 32, 37]",5489321372
Cs2GeB4O9,mp-1226455,4.274900000000001,4.7353922,0.0,"{55: 2, 32: 1, 5: 4, 8: 9}","[5, 8, 32, 55]",5489321552
La2B4O9,mp-752449,4.491899999999999,4.48223821,0.008158094066667232,"{57: 2, 5: 4, 8: 9}","[5, 8, 57]",5489572
Sm2B4O9,mp-768280,5.126399999999999,2.70012698,0.010028034666648367,"{62: 2, 5: 4, 8: 9}","[5, 8, 62]",5489622
Eu2B4O9,mp-1213631,0.0,2.83581557,0.018881749222224187,"{63: 2, 5: 4, 8: 9}","[5, 8, 63]",5489632
Gd2B4O9,mp-31369,2.8237,2.65502784,0.02121804331942556,"{64: 2, 5: 4, 8: 9}","[5, 8, 64]",5489642
Tb2B4O9,mp-1208709,5.514400000000001,2.92121416,0.010921250033332441,"{65: 2, 5: 4, 8: 9}","[5, 8, 65]",5489652
Dy2B4O9,mp-16600,5.6245,2.96433081,0.01847847499998423,"{66: 2, 5: 4, 8: 9}","[5, 8, 66]",5489662
Ho2B4O9,mp-768301,5.659700000000001,2.85244328,0.03068925958331903,"{67: 2, 5: 4, 8: 9}","[5, 8, 67]",5489672
Er2B4O9,mp-756914,5.6886,2.83859785,0.03405312616666478,"{68: 2, 5: 4, 8: 9}","[5, 8, 68]",5489682
Lu2B4O9,mp-772781,5.469799999999999,2.94989759,0.04047869591666853,"{71: 2, 5: 4, 8: 9}","[5, 8, 71]",5489712
ThB4,mp-542573,0.0,8.63595444,0.0,"{90: 1, 5: 4}","[5, 90]",54901
UB4,mp-619,0.0,10.40772114,0.0,"{92: 1, 5: 4}","[5, 92]",54921
NpB4,mp-1188425,0.0,10.43633868,0.0,"{93: 1, 5: 4}","[5, 93]",54931
PuNpB4,mp-1219654,0.0,12.44415821,0.017354744791667542,"{94: 1, 93: 1, 5: 4}","[5, 93, 94]",54931941
PuB4,mp-20467,0.0,9.96884724,0.0,"{94: 1, 5: 4}","[5, 94]",54941
B4PF9,mp-27426,5.712,-2.83477602,0.2263979008035708,"{5: 4, 15: 1, 9: 9}","[5, 9, 15]",5499151
Al23B50,mp-530274,0.0,9.22014058,0.0,"{13: 23, 5: 50}","[5, 13]",5501323
Na3B5S9,mp-29000,3.5062999999999995,5.27984011,0.0,"{11: 3, 5: 5, 16: 9}","[5, 11, 16]",55113169
Na3B5Se9,mp-531600,2.7845000000000004,1.20791239,0.0,"{11: 3, 5: 5, 34: 9}","[5, 11, 34]",55113349
Na3B5Pt9,mp-505055,0.0,5.81163722,0.0,"{11: 3, 5: 5, 78: 9}","[5, 11, 78]",55113789
Dy9B5S21,mp-1225776,1.4641000000000002,4.10425324,0.03407594427142868,"{66: 9, 5: 5, 16: 21}","[5, 16, 66]",551621669
Ho9B5S21,mp-1224577,1.4704999999999995,4.16281472,0.03959315248571382,"{67: 9, 5: 5, 16: 21}","[5, 16, 67]",551621679
Er9B5S21,mp-1226663,1.4741,4.14366606,0.04657418877143016,"{68: 9, 5: 5, 16: 21}","[5, 16, 68]",551621689
Tm9B5S21,mp-1217003,1.4360999999999997,4.20098374,0.05782263821785705,"{69: 9, 5: 5, 16: 21}","[5, 16, 69]",551621699
Lu9B5S21,mp-1222906,1.3279999999999994,4.34347178,0.058251238414284146,"{71: 9, 5: 5, 16: 21}","[5, 16, 71]",551621719
Ca2B5Os3,mp-542455,0.0,5.24891696,0.0,"{20: 2, 5: 5, 76: 3}","[5, 20, 76]",55202763
Tb2(Ni2B)5,mp-1201581,0.0,7.09908105,0.002208977024900527,"{65: 2, 28: 10, 5: 5}","[5, 28, 65]",552810652
Dy2(Ni2B)5,mp-1204635,0.0,7.09600733,0.0,"{66: 2, 28: 10, 5: 5}","[5, 28, 66]",552810662
Ho2(Ni2B)5,mp-568440,0.0,7.07338759,0.19761567244747447,"{67: 2, 28: 10, 5: 5}","[5, 28, 67]",552810672
Er2(Ni2B)5,mp-1197355,0.0,6.96046102,0.0,"{68: 2, 28: 10, 5: 5}","[5, 28, 68]",552810682
Tm2(Ni2B)5,mp-1203887,0.0,7.11897655,0.0,"{69: 2, 28: 10, 5: 5}","[5, 28, 69]",552810692
CuB5,mp-1181765,0.0,5.0416171,0.3846316811111121,"{29: 1, 5: 5}","[5, 29]",55291
Cu3B5Pt9,mp-1105186,0.0,7.19460792,0.0,"{29: 3, 5: 5, 78: 9}","[5, 29, 78]",55293789
Zn6B5Ir11,mp-1215752,0.0,7.15461336,0.0,"{30: 6, 5: 5, 77: 11}","[5, 30, 77]",553067711
Y2B5Pd14,mp-4597,0.0,5.34333987,0.031725305411256954,"{39: 2, 5: 5, 46: 14}","[5, 39, 46]",553924614
B5Mo2,mp-7229,0.0,9.93901936,0.4354736101190504,"{5: 5, 42: 2}","[5, 42]",55422
Hf6Zr8Ta3Ti2(Nb4B27)2,mp-2646953,0.0,8.0726967,0.004445179259256804,"{72: 6, 40: 8, 73: 3, 22: 2, 41: 8, 5: 54}","[5, 22, 40, 41, 72, 73]",554222408418726733
Hf6Zr4Ta8Ti3(NbB9)6,mp-2646956,0.0,8.41325016,0.010687616790132637,"{72: 6, 40: 4, 73: 8, 22: 3, 41: 6, 5: 54}","[5, 22, 40, 41, 72, 73]",554223404416726738
Hf7Zr6Ta4Ti3Nb7B54,mp-2646912,0.0,8.17646728,0.007259720370370815,"{72: 7, 40: 6, 73: 4, 22: 3, 41: 7, 5: 54}","[5, 22, 40, 41, 72, 73]",554223406417727734
Hf2Zr8Ta8Ti4Nb5B54,mp-2646932,0.0,8.31826926,0.009240262345677763,"{72: 2, 40: 8, 73: 8, 22: 4, 41: 5, 5: 54}","[5, 22, 40, 41, 72, 73]",554224408415722738
Hf6Zr8Ta5Ti5(NbB18)3,mp-2646934,0.0,8.11854793,0.012392294320989095,"{72: 6, 40: 8, 73: 5, 22: 5, 41: 3, 5: 54}","[5, 22, 40, 41, 72, 73]",554225408413726735
Hf2Zr9Ta6Ti5Nb5B54,mp-2646916,0.0,8.20347386,0.0092509235802396,"{72: 2, 40: 9, 73: 6, 22: 5, 41: 5, 5: 54}","[5, 22, 40, 41, 72, 73]",554225409415722736
B5I,mp-1182499,0.09949999999999992,3.59725354,0.6519446582870385,"{5: 5, 53: 1}","[5, 53]",55531
Pr2B5,mp-16713,0.0,5.09814407,0.0,"{59: 2, 5: 5}","[5, 59]",55592
Nd2B5,mp-567415,0.0,5.00297794,0.0,"{60: 2, 5: 5}","[5, 60]",55602
Sm2B5,mp-570421,0.0,4.84152896,0.0,"{62: 2, 5: 5}","[5, 62]",55622
Eu2B5Os3,mp-582389,0.0,5.22212604,0.0,"{63: 2, 5: 5, 76: 3}","[5, 63, 76]",55632763
Gd2B5,mp-28366,0.0,4.80748213,0.0,"{64: 2, 5: 5}","[5, 64]",55642
Mg8B5IN10,mp-570132,2.6847,1.76582184,0.03103243789062482,"{12: 8, 5: 5, 53: 1, 7: 10}","[5, 7, 12, 53]",55710128531
Ba8B5N10F,mp-561502,2.2163,1.7421384,0.0,"{56: 8, 5: 5, 7: 10, 9: 1}","[5, 7, 9, 56]",5571091568
B5NO12,mp-1204898,0.12929999999999997,-1.74825787,0.7307948554745396,"{5: 5, 7: 1, 8: 12}","[5, 7, 8]",5571812
LaB5NO14,mp-1203920,0.0021999999999999797,-0.18994632,0.3485478197089895,"{57: 1, 5: 5, 7: 1, 8: 14}","[5, 7, 8, 57]",5571814571
B5W2,mp-8079,0.0,9.48425681,0.534290030119049,"{5: 5, 74: 2}","[5, 74]",55742
B5Ir3W2,mp-1228672,0.0,8.47833827,0.0,"{5: 5, 77: 3, 74: 2}","[5, 74, 77]",55742773
K2NaZn(BO2)5,mp-1019787,4.2332,-0.3792813,0.0,"{19: 2, 11: 1, 30: 1, 5: 5, 8: 10}","[5, 8, 11, 19, 30]",55810111192301
Na3Mg(BO2)5,mp-683990,4.4624999999999995,0.11416885,0.0,"{11: 3, 12: 1, 5: 5, 8: 10}","[5, 8, 11, 12]",55810113121
Na3Ca(BO2)5,mp-542719,4.556699999999999,0.57233471,0.0,"{11: 3, 20: 1, 5: 5, 8: 10}","[5, 8, 11, 20]",55810113201
Na3Zn(BO2)5,mp-560158,4.035,0.05397791,0.0,"{11: 3, 30: 1, 5: 5, 8: 10}","[5, 8, 11, 30]",55810113301
Na3Sr(BO2)5,mp-6775,4.5614,0.349205,0.0,"{11: 3, 38: 1, 5: 5, 8: 10}","[5, 8, 11, 38]",55810113381
LaMg(BO2)5,mp-557758,4.5258,3.25171951,0.0,"{57: 1, 12: 1, 5: 5, 8: 10}","[5, 8, 12, 57]",55810121571
CeMg(BO2)5,mp-1213931,0.28999999999999915,6.23193339,0.0,"{58: 1, 12: 1, 5: 5, 8: 10}","[5, 8, 12, 58]",55810121581
PrMg(BO2)5,mp-1209670,5.9464999999999995,2.21915998,0.0,"{59: 1, 12: 1, 5: 5, 8: 10}","[5, 8, 12, 59]",55810121591
NdMg(BO2)5,mp-1210080,5.9713,2.2107821,0.0,"{60: 1, 12: 1, 5: 5, 8: 10}","[5, 8, 12, 60]",55810121601
SmMg(BO2)5,mp-1208862,6.005599999999999,2.1929075,0.0,"{62: 1, 12: 1, 5: 5, 8: 10}","[5, 8, 12, 62]",55810121621
EuMg(BO2)5,mp-1213294,0.011699999999999822,2.20842131,0.007094926740183638,"{63: 1, 12: 1, 5: 5, 8: 10}","[5, 8, 12, 63]",55810121631
GdMg(BO2)5,mp-556905,2.7985999999999995,2.33582351,0.0024475181127368018,"{64: 1, 12: 1, 5: 5, 8: 10}","[5, 8, 12, 64]",55810121641
TbMg(BO2)5,mp-1208392,6.070600000000001,2.27761494,0.0,"{65: 1, 12: 1, 5: 5, 8: 10}","[5, 8, 12, 65]",55810121651
DyMg(BO2)5,mp-1212987,6.088900000000001,2.27064822,0.00021436477939928977,"{66: 1, 12: 1, 5: 5, 8: 10}","[5, 8, 12, 66]",55810121661
HoMg(BO2)5,mp-1212152,6.137099999999999,2.26342074,0.011916517720578668,"{67: 1, 12: 1, 5: 5, 8: 10}","[5, 8, 12, 67]",55810121671
ErMg(BO2)5,mp-1213132,6.1636,2.28021919,0.014839270955869566,"{68: 1, 12: 1, 5: 5, 8: 10}","[5, 8, 12, 68]",55810121681
Ca2B5ClO10,mp-1182326,2.8906,1.45520319,0.07715678322910957,"{20: 2, 5: 5, 17: 1, 8: 10}","[5, 8, 17, 20]",55810171202
K3Zn(BO2)5,mp-1019786,4.0518,-0.49017949,0.0,"{19: 3, 30: 1, 5: 5, 8: 10}","[5, 8, 19, 30]",55810193301
K3Cd(BO2)5,mp-1204785,3.8179999999999996,3.27183515,0.0,"{19: 3, 48: 1, 5: 5, 8: 10}","[5, 8, 19, 48]",55810193481
YCo(BO2)5,mp-19468,3.3508,2.63366352,0.032852908643786094,"{39: 1, 27: 1, 5: 5, 8: 10}","[5, 8, 27, 39]",55810271391
LaCo(BO2)5,mp-19475,3.1157000000000004,3.49635746,0.04683061274506528,"{57: 1, 27: 1, 5: 5, 8: 10}","[5, 8, 27, 57]",55810271571
NdCo(BO2)5,mp-19495,4.968299999999999,2.62224851,0.03851992331291498,"{60: 1, 27: 1, 5: 5, 8: 10}","[5, 8, 27, 60]",55810271601
SmCo(BO2)5,mp-19489,5.066800000000001,2.68073817,0.04052007084968068,"{62: 1, 27: 1, 5: 5, 8: 10}","[5, 8, 27, 62]",55810271621
HoCo(BO2)5,mp-19465,3.5892000000000004,2.62531544,0.047569474158503766,"{67: 1, 27: 1, 5: 5, 8: 10}","[5, 8, 27, 67]",55810271671
NdNi(BO2)5,mp-19520,1.4747000000000003,3.47522719,0.0,"{60: 1, 28: 1, 5: 5, 8: 10}","[5, 8, 28, 60]",55810281601
GdNi(BO2)5,mp-505232,3.132,2.3142502,0.0,"{64: 1, 28: 1, 5: 5, 8: 10}","[5, 8, 28, 64]",55810281641
TbCu(BO2)5,mp-17323,0.4677000000000002,2.47515145,0.019288528284297612,"{65: 1, 29: 1, 5: 5, 8: 10}","[5, 8, 29, 65]",55810291651
TmCu(BO2)5,mp-17395,0.5997000000000003,2.40581712,0.007853055674003073,"{69: 1, 29: 1, 5: 5, 8: 10}","[5, 8, 29, 69]",55810291691
LuCu(BO2)5,mp-18595,0.7753999999999999,2.60523779,0.012064946299039647,"{71: 1, 29: 1, 5: 5, 8: 10}","[5, 8, 29, 71]",55810291711
Rb3Zn(BO2)5,mp-1020643,4.1752,-0.5318926,0.0,"{37: 3, 30: 1, 5: 5, 8: 10}","[5, 8, 30, 37]",55810301373
LaZn(BO2)5,mp-1019968,4.4971,2.93470568,0.004692114852925755,"{57: 1, 30: 1, 5: 5, 8: 10}","[5, 8, 30, 57]",55810301571
CeZn(BO2)5,mp-21667,0.4874999999999998,7.0021409,0.02027016257349956,"{58: 1, 30: 1, 5: 5, 8: 10}","[5, 8, 30, 58]",55810301581
NdZn(BO2)5,mp-15519,4.9183,2.10275861,0.006188874448522341,"{60: 1, 30: 1, 5: 5, 8: 10}","[5, 8, 30, 60]",55810301601
EuZn(BO2)5,mp-1019730,0.0,1.97872422,0.013567536004915226,"{63: 1, 30: 1, 5: 5, 8: 10}","[5, 8, 30, 63]",55810301631
TbZn(BO2)5,mp-15520,5.0205,2.08781969,0.011412471838243121,"{65: 1, 30: 1, 5: 5, 8: 10}","[5, 8, 30, 65]",55810301651
Rb3Cd(BO2)5,mp-1200569,3.7196,3.10667751,0.0,"{37: 3, 48: 1, 5: 5, 8: 10}","[5, 8, 37, 48]",55810373481
Nb(BO2)5,mp-779261,3.2638,-1.18913023,0.06668504755208993,"{41: 1, 5: 5, 8: 10}","[5, 8, 41]",55810411
LaCd(BO2)5,mp-14555,4.211,2.77689615,0.0,"{57: 1, 48: 1, 5: 5, 8: 10}","[5, 8, 48, 57]",55810481571
SmCd(BO2)5,mp-14556,4.207800000000001,1.94111192,0.004875619705916989,"{62: 1, 48: 1, 5: 5, 8: 10}","[5, 8, 48, 62]",55810481621
EuCd(BO2)5,mp-541157,4.019500000000001,1.73902472,0.0160324244607839,"{63: 1, 48: 1, 5: 5, 8: 10}","[5, 8, 48, 63]",55810481631
In(BO2)5,mp-1188835,0.0,2.61701069,0.08896201809896098,"{49: 1, 5: 5, 8: 10}","[5, 8, 49]",55810491
B5SbO10,mp-779174,2.0512,-0.16565281,0.08957452119794773,"{5: 5, 51: 1, 8: 10}","[5, 8, 51]",55810511
Ba(BO2)5,mp-1204604,0.6024,-0.01213357,0.15644104814451332,"{56: 1, 5: 5, 8: 10}","[5, 8, 56]",55810561
Pr(BO2)5,mp-1204691,0.0,0.37523063,0.09504550861979055,"{59: 1, 5: 5, 8: 10}","[5, 8, 59]",55810591
Na2B5O11,mp-1180492,0.0,-1.22888809,0.2805146596759531,"{11: 2, 5: 5, 8: 11}","[5, 8, 11]",55811112
LaB5BrO11,mp-1204863,0.009099999999999997,-0.07712747,0.1779126495833232,"{57: 1, 5: 5, 35: 1, 8: 11}","[5, 8, 35, 57]",55811351571
CeB5BrO11,mp-1198521,0.14749999999999996,-0.53350849,0.2562166889120352,"{58: 1, 5: 5, 35: 1, 8: 11}","[5, 8, 35, 58]",55811351581
LaB5IO11,mp-1205267,1.2036000000000002,1.15365944,0.07971916705248372,"{57: 1, 5: 5, 53: 1, 8: 11}","[5, 8, 53, 57]",55811531571
PrB5IO11,mp-1201381,0.0,-0.08574828,0.16682294915741647,"{59: 1, 5: 5, 53: 1, 8: 11}","[5, 8, 53, 59]",55811531591
NdB5IO11,mp-1198400,1.1162999999999998,0.60638697,0.08596215453008416,"{60: 1, 5: 5, 53: 1, 8: 11}","[5, 8, 53, 60]",55811531601
Ba2B5O11,mp-1198603,0.011900000000000022,0.58532723,0.10596473385416694,"{56: 2, 5: 5, 8: 11}","[5, 8, 56]",55811562
RbUB5O11F,mp-1204153,0.43679999999999997,-0.33366116,0.06280628642542396,"{37: 1, 92: 1, 5: 5, 8: 11, 9: 1}","[5, 8, 9, 37, 92]",5581191371921
UTlB5O11F,mp-1189325,0.5901000000000001,0.92813312,0.05249943040019822,"{92: 1, 81: 1, 5: 5, 8: 11, 9: 1}","[5, 8, 9, 81, 92]",5581191811921
KB5O12,mp-1180867,0.06899999999999995,-2.00951075,0.5154408377083399,"{19: 1, 5: 5, 8: 12}","[5, 8, 19]",55812191
K2SrVB5O12,mp-1200300,3.9009,-0.27602925,0.0,"{19: 2, 38: 1, 23: 1, 5: 5, 8: 12}","[5, 8, 19, 23, 38]",55812192231381
Sc3B5O12,mp-1203138,3.7969000000000004,3.8387168,0.0,"{21: 3, 5: 5, 8: 12}","[5, 8, 21]",55812213
La3B5O12,mp-779571,3.8196,4.00029226,0.06748879817500075,"{57: 3, 5: 5, 8: 12}","[5, 8, 57]",55812573
Sm3B5O12,mp-780265,3.7350999999999996,5.89031428,0.08139507949999825,"{62: 3, 5: 5, 8: 12}","[5, 8, 62]",55812623
Er3B5O12,mp-560278,5.3497,8.29210636,0.018498564624998437,"{68: 3, 5: 5, 8: 12}","[5, 8, 68]",55812683
Tm3B5O12,mp-558534,5.3919,3.01389658,0.0,"{69: 3, 5: 5, 8: 12}","[5, 8, 69]",55812693
Lu3B5O12,mp-554282,5.426500000000001,3.092462,0.0012406889375018437,"{71: 3, 5: 5, 8: 12}","[5, 8, 71]",55812713
TlB5O12,mp-1179393,0.4269,-0.48526601,0.3648185939120374,"{81: 1, 5: 5, 8: 12}","[5, 8, 81]",55812811
Bi3B5O12,mp-23549,3.283,2.92253208,0.003499893249999886,"{83: 3, 5: 5, 8: 12}","[5, 8, 83]",55812833
Ca3B5W8Cl2O13,mp-1215119,0.5954000000000002,2.97224122,1.0495557063844139,"{20: 3, 5: 5, 74: 8, 17: 2, 8: 13}","[5, 8, 17, 20, 74]",55813172203748
Ca2B5O13,mp-1202231,0.24280000000000002,0.14528062,0.2996348942812439,"{20: 2, 5: 5, 8: 13}","[5, 8, 20]",55813202
NaCaB5O14,mp-1204559,0.22109999999999996,-0.9340442,0.47664611853176897,"{11: 1, 20: 1, 5: 5, 8: 14}","[5, 8, 11, 20]",55814111201
K2AlB5O14,mp-1197321,0.9031999999999999,-1.42386875,0.4628045629932913,"{19: 2, 13: 1, 5: 5, 8: 14}","[5, 8, 13, 19]",55814131192
Ca2SiB5O14,mp-867937,0.029600000000000015,0.47735086,0.18246292064394254,"{20: 2, 14: 1, 5: 5, 8: 14}","[5, 8, 14, 20]",55814141202
Ba3ZnB5PO14,mp-1019525,4.8405000000000005,1.11659374,0.0,"{56: 3, 30: 1, 5: 5, 15: 1, 8: 14}","[5, 8, 15, 30, 56]",55814151301563
Ca3La3(BO3)5,mp-6709,4.1370000000000005,3.88763277,0.0,"{20: 3, 57: 3, 5: 5, 8: 15}","[5, 8, 20, 57]",55815203573
Al6B5(O5F)3,mp-6738,6.114699999999999,2.86741499,0.0,"{13: 6, 5: 5, 8: 15, 9: 3}","[5, 8, 9, 13]",5581593136
Al6B5O18,mp-1214854,0.46320000000000006,3.24279663,0.11604441726358328,"{13: 6, 5: 5, 8: 18}","[5, 8, 13]",55818136
Ca4Si3(BO4)5,mp-1227192,0.137,1.75856747,0.10366075957031384,"{20: 4, 14: 3, 5: 5, 8: 20}","[5, 8, 14, 20]",55820143204
Ca3B5Cl2O21,mp-1182639,0.029200000000000004,0.06929376,0.5783308116935428,"{20: 3, 5: 5, 17: 2, 8: 21}","[5, 8, 17, 20]",55821172203
BiB5,mp-1191193,0.0,-2.80049939,1.1820314881944451,"{83: 1, 5: 5}","[5, 83]",55831
Na3B5SO8,mp-560266,3.8692,1.65685331,0.005498707696081517,"{11: 3, 5: 5, 16: 1, 8: 8}","[5, 8, 11, 16]",5588113161
KB5O8,mp-12183,5.413600000000001,-1.76852424,0.0,"{19: 1, 5: 5, 8: 8}","[5, 8, 19]",5588191
RbB5O8,mp-561814,5.9404,-1.00253795,0.0,"{37: 1, 5: 5, 8: 8}","[5, 8, 37]",5588371
CsB5O8,mp-581194,5.9417,-1.00037207,0.0,"{55: 1, 5: 5, 8: 8}","[5, 8, 55]",5588551
TlB5O8,mp-680122,5.1834,0.21401494,0.0,"{81: 1, 5: 5, 8: 8}","[5, 8, 81]",5588811
NaSrB5O9,mp-561514,5.2309,0.56004502,0.0,"{11: 1, 38: 1, 5: 5, 8: 9}","[5, 8, 11, 38]",5589111381
BaNaB5O9,mp-1019554,5.0076,0.36805424,0.0,"{56: 1, 11: 1, 5: 5, 8: 9}","[5, 8, 11, 56]",5589111561
NaB5PbO9,mp-1199541,4.586,1.18461696,0.0,"{11: 1, 5: 5, 82: 1, 8: 9}","[5, 8, 11, 82]",5589111821
Ca2B5ClO9,mp-1214176,5.2728,0.95805232,0.0,"{20: 2, 5: 5, 17: 1, 8: 9}","[5, 8, 17, 20]",5589171202
Sr2B5ClO9,mp-557330,5.3411,0.68002521,0.0,"{38: 2, 5: 5, 17: 1, 8: 9}","[5, 8, 17, 38]",5589171382
Ba2B5ClO9,mp-555742,5.2417,0.59572933,0.0,"{56: 2, 5: 5, 17: 1, 8: 9}","[5, 8, 17, 56]",5589171562
Eu2B5ClO9,mp-553918,0.8729000000000005,5.74679152,0.0,"{63: 2, 5: 5, 17: 1, 8: 9}","[5, 8, 17, 63]",5589171632
B5Pb2ClO9,mp-557103,3.4890000000000003,1.97402595,0.0,"{5: 5, 82: 2, 17: 1, 8: 9}","[5, 8, 17, 82]",5589171822