formula,material_id,band_gap,efermi,energy_above_hull,database_IDs,comp_atoms,sorted_keys_comp_atoms,comp_number,new_formula
BaMg,mp-1183308,0.0,1.99976096,0.0,False,"{56: 1, 12: 1}","[12, 56]",121561,Ba1Mg1
Ba2MgTl,mp-1183219,0.0,2.94745243,0.0,False,"{56: 2, 12: 1, 81: 1}","[12, 56, 81]",121562811,Ba2Mg1Tl1
LaMg,mp-1094739,0.0,5.78925392,0.0,False,"{57: 1, 12: 1}","[12, 57]",121571,La1Mg1
LaMgAu2,mp-1184999,0.0,5.99773448,0.0,False,"{57: 1, 12: 1, 79: 2}","[12, 57, 79]",121571792,La1Mg1Au2
LaMgHg2,mp-867833,0.0,5.1703365,0.0,False,"{57: 1, 12: 1, 80: 2}","[12, 57, 80]",121571802,La1Mg1Hg2
CeMgAu,mp-759835,0.0,5.91209594,0.0,False,"{58: 1, 12: 1, 79: 1}","[12, 58, 79]",121581791,Ce1Mg1Au1
CeMgAu2,mp-1183717,0.0,5.71939791,0.0,False,"{58: 1, 12: 1, 79: 2}","[12, 58, 79]",121581792,Ce1Mg1Au2
CeMgHg2,mp-1183744,0.0,4.85439762,0.0,False,"{58: 1, 12: 1, 80: 2}","[12, 58, 80]",121581802,Ce1Mg1Hg2
PrMgAu2,mp-975893,0.0,4.5113221,0.0,False,"{59: 1, 12: 1, 79: 2}","[12, 59, 79]",121591792,Pr1Mg1Au2
PrMgHg2,mp-862758,0.0,3.82386848,0.0,False,"{59: 1, 12: 1, 80: 2}","[12, 59, 80]",121591802,Pr1Mg1Hg2
NdMgAu2,mp-866064,0.0,4.40870902,0.0,False,"{60: 1, 12: 1, 79: 2}","[12, 60, 79]",121601792,Nd1Mg1Au2
NdMgHg2,mp-864924,0.0,3.80879085,0.0,False,"{60: 1, 12: 1, 80: 2}","[12, 60, 80]",121601802,Nd1Mg1Hg2
PmMgAu2,mp-862933,0.0,4.51464821,0.0,False,"{61: 1, 12: 1, 79: 2}","[12, 61, 79]",121611792,Pm1Mg1Au2
PmMgHg2,mp-862938,0.0,3.85711064,0.0,False,"{61: 1, 12: 1, 80: 2}","[12, 61, 80]",121611802,Pm1Mg1Hg2
PmMgTl2,mp-1186609,0.0,5.80227745,0.0,False,"{61: 1, 12: 1, 81: 2}","[12, 61, 81]",121611812,Pm1Mg1Tl2
Pm2MgTl,mp-863704,0.0,4.36803732,0.0,False,"{61: 2, 12: 1, 81: 1}","[12, 61, 81]",121612811,Pm2Mg1Tl1
SmMgAu2,mp-867867,0.0,4.40217271,0.0,False,"{62: 1, 12: 1, 79: 2}","[12, 62, 79]",121621792,Sm1Mg1Au2
SmMgHg2,mp-867181,0.0,3.81759034,0.0,False,"{62: 1, 12: 1, 80: 2}","[12, 62, 80]",121621802,Sm1Mg1Hg2
EuMgHg2,mp-861928,0.0,3.21852265,0.0,False,"{63: 1, 12: 1, 80: 2}","[12, 63, 80]",121631802,Eu1Mg1Hg2
EuMgTl2,mp-1184347,0.0,5.24738639,0.0,False,"{63: 1, 12: 1, 81: 2}","[12, 63, 81]",121631812,Eu1Mg1Tl2
Eu2MgTl,mp-1183884,0.0,3.49720588,0.0,False,"{63: 2, 12: 1, 81: 1}","[12, 63, 81]",121632811,Eu2Mg1Tl1
GdMgHg2,mp-1184495,0.0,3.7239722,0.0,False,"{64: 1, 12: 1, 80: 2}","[12, 64, 80]",121641802,Gd1Mg1Hg2
Gd2MgTl,mp-865316,0.0,4.36797765,0.0,False,"{64: 2, 12: 1, 81: 1}","[12, 64, 81]",121642811,Gd2Mg1Tl1
TbMgAu2,mp-866068,0.0,4.58101597,0.0,False,"{65: 1, 12: 1, 79: 2}","[12, 65, 79]",121651792,Tb1Mg1Au2
TbMgHg2,mp-867234,0.0,3.9325963,0.0,False,"{65: 1, 12: 1, 80: 2}","[12, 65, 80]",121651802,Tb1Mg1Hg2
DyMgAu2,mp-867762,0.0,4.58922631,0.0,False,"{66: 1, 12: 1, 79: 2}","[12, 66, 79]",121661792,Dy1Mg1Au2
DyMgHg2,mp-867826,0.0,3.934109,0.0,False,"{66: 1, 12: 1, 80: 2}","[12, 66, 80]",121661802,Dy1Mg1Hg2
HoMgAu2,mp-864653,0.0,4.56870879,0.0,False,"{67: 1, 12: 1, 79: 2}","[12, 67, 79]",121671792,Ho1Mg1Au2
HoMgHg2,mp-977369,0.0,3.88615773,0.0,False,"{67: 1, 12: 1, 80: 2}","[12, 67, 80]",121671802,Ho1Mg1Hg2
ErMgAu2,mp-1184216,0.0,4.61462308,0.0,False,"{68: 1, 12: 1, 79: 2}","[12, 68, 79]",121681792,Er1Mg1Au2
ErMgHg2,mp-863674,0.0,3.95031957,0.0,False,"{68: 1, 12: 1, 80: 2}","[12, 68, 80]",121681802,Er1Mg1Hg2
TmMgPt2,mp-978984,0.0,5.34356283,0.0,False,"{69: 1, 12: 1, 78: 2}","[12, 69, 78]",121691782,Tm1Mg1Pt2
TmMgAu2,mp-865225,0.0,4.62870031,0.0,False,"{69: 1, 12: 1, 79: 2}","[12, 69, 79]",121691792,Tm1Mg1Au2
TmMgHg2,mp-865981,0.0,3.96598514,0.0,False,"{69: 1, 12: 1, 80: 2}","[12, 69, 80]",121691802,Tm1Mg1Hg2
Tm2Mg,mp-865323,0.0,2.95847612,0.0,False,"{69: 2, 12: 1}","[12, 69]",121692,Tm2Mg1
LuMgAu2,mp-865861,0.0,4.68245472,0.0,False,"{71: 1, 12: 1, 79: 2}","[12, 71, 79]",121711792,Lu1Mg1Au2
LuMgHg2,mp-865226,0.0,3.90539577,0.0,False,"{71: 1, 12: 1, 80: 2}","[12, 71, 80]",121711802,Lu1Mg1Hg2
HfMgIr2,mp-865020,0.0,7.26133009,0.0,False,"{72: 1, 12: 1, 77: 2}","[12, 72, 77]",121721772,Hf1Mg1Ir2
HfMgPt2,mp-1184572,0.0,6.37840347,0.0,False,"{72: 1, 12: 1, 78: 2}","[12, 72, 78]",121721782,Hf1Mg1Pt2
HfMgAu2,mp-983123,0.0,5.38491724,0.0,False,"{72: 1, 12: 1, 79: 2}","[12, 72, 79]",121721792,Hf1Mg1Au2
MgTaOs2,mp-866071,0.0,6.35861035,0.0,False,"{12: 1, 73: 1, 76: 2}","[12, 73, 76]",121731762,Mg1Ta1Os2
MgTaIr2,mp-866075,0.0,7.82242515,0.0,False,"{12: 1, 73: 1, 77: 2}","[12, 73, 77]",121731772,Mg1Ta1Ir2
MgPaPt2,mp-1185914,0.0,8.21924503,0.0,False,"{12: 1, 91: 1, 78: 2}","[12, 78, 91]",121782911,Mg1Pa1Pt2
MgPt3,mp-30777,0.0,6.89272305,0.0,False,"{12: 1, 78: 3}","[12, 78]",121783,Mg1Pt3
ThMgAu2,mp-1187438,0.0,5.81220516,0.0,False,"{90: 1, 12: 1, 79: 2}","[12, 79, 90]",121792901,Th1Mg1Au2
MgPaAu2,mp-1185917,0.0,7.12600293,0.0,False,"{12: 1, 91: 1, 79: 2}","[12, 79, 91]",121792911,Mg1Pa1Au2
MgAu3,mp-570017,0.0,4.84307852,0.0,False,"{12: 1, 79: 3}","[12, 79]",121793,Mg1Au3
AcMgHg2,mp-866225,0.0,4.51694591,0.0,False,"{89: 1, 12: 1, 80: 2}","[12, 80, 89]",121802891,Ac1Mg1Hg2
ThMgHg2,mp-1187426,0.0,5.06764414,0.0,False,"{90: 1, 12: 1, 80: 2}","[12, 80, 90]",121802901,Th1Mg1Hg2
Ac2MgTl,mp-1183079,0.22000000000000064,5.86030696,0.0,False,"{89: 2, 12: 1, 81: 1}","[12, 81, 89]",121811892,Ac2Mg1Tl1
AcMgTl2,mp-861735,0.0,6.25833339,0.0,False,"{89: 1, 12: 1, 81: 2}","[12, 81, 89]",121812891,Ac1Mg1Tl2
Ac2MgPb,mp-1183078,0.0,6.06368497,0.0,False,"{89: 2, 12: 1, 82: 1}","[12, 82, 89]",121821892,Ac2Mg1Pb1
Ba5Mg18Ge13,mp-1228121,0.0,3.51192452,0.0,False,"{56: 5, 12: 18, 32: 13}","[12, 32, 56]",12183213565,Ba5Mg18Ge13
AcMg,mp-866286,0.0,4.82272517,0.0,False,"{89: 1, 12: 1}","[12, 89]",121891,Ac1Mg1
Mg2ZnP2,mp-1222129,0.9775,5.38472778,0.0,False,"{12: 2, 30: 1, 15: 2}","[12, 15, 30]",122152301,Mg2Zn1P2
CaLaMg2,mp-861643,0.0,4.114039,0.0,False,"{20: 1, 57: 1, 12: 2}","[12, 20, 57]",122201571,Ca1La1Mg2
CaPmMg2,mp-1183567,0.0,2.78595151,0.0,False,"{20: 1, 61: 1, 12: 2}","[12, 20, 61]",122201611,Ca1Pm1Mg2
CaAcMg2,mp-1183488,0.0,3.69806523,0.0,False,"{20: 1, 89: 1, 12: 2}","[12, 20, 89]",122201891,Ca1Ac1Mg2
CeY(MgNi4)2,mp-1226870,0.0,6.92021058,0.0,False,"{58: 1, 39: 1, 12: 2, 28: 8}","[12, 28, 39, 58]",122288391581,Ce1Y1Mg2Ni8
Mg2Cu3Ge,mp-1222187,0.0,6.10573203,0.0,False,"{12: 2, 29: 3, 32: 1}","[12, 29, 32]",122293321,Mg2Cu3Ge1
Mg2ZnAs2,mp-1222174,0.5345,4.31511263,0.0,False,"{12: 2, 30: 1, 33: 2}","[12, 30, 33]",122301332,Mg2Zn1As2
PrYMg2,mp-861479,0.0,3.3291895,0.0,False,"{59: 1, 39: 1, 12: 2}","[12, 39, 59]",122391591,Pr1Y1Mg2
NdYMg2,mp-1186335,0.0,3.20052693,0.0,False,"{60: 1, 39: 1, 12: 2}","[12, 39, 60]",122391601,Nd1Y1Mg2
PmYMg2,mp-862969,0.0,3.15598119,0.0,False,"{61: 1, 39: 1, 12: 2}","[12, 39, 61]",122391611,Pm1Y1Mg2
SmYMg2,mp-867861,0.0,3.13897736,0.0,False,"{62: 1, 39: 1, 12: 2}","[12, 39, 62]",122391621,Sm1Y1Mg2
Mg2PdRh,mp-864969,0.0,4.85218921,0.0,False,"{12: 2, 46: 1, 45: 1}","[12, 45, 46]",122451461,Mg2Pd1Rh1
Mg2AgRh,mp-864933,0.0,4.75663929,0.0,False,"{12: 2, 47: 1, 45: 1}","[12, 45, 47]",122451471,Mg2Ag1Rh1
Mg2PtRh,mp-864940,0.0,5.51097356,0.0,False,"{12: 2, 78: 1, 45: 1}","[12, 45, 78]",122451781,Mg2Pt1Rh1
Mg2RhAu,mp-864965,0.0,5.47733805,0.0,False,"{12: 2, 45: 1, 79: 1}","[12, 45, 79]",122451791,Mg2Rh1Au1
Mg2AgPd,mp-1222144,0.0,4.42633522,0.0,False,"{12: 2, 47: 1, 46: 1}","[12, 46, 47]",122461471,Mg2Ag1Pd1
Mg2PdPt,mp-864975,0.0,5.48482756,0.0,False,"{12: 2, 46: 1, 78: 1}","[12, 46, 78]",122461781,Mg2Pd1Pt1
Mg2AgPt,mp-864932,0.0,4.92117958,0.0,False,"{12: 2, 47: 1, 78: 1}","[12, 47, 78]",122471781,Mg2Ag1Pt1
Mg2AgAu,mp-864978,0.0,4.91794997,0.0,False,"{12: 2, 47: 1, 79: 1}","[12, 47, 79]",122471791,Mg2Ag1Au1
Mg2AgHg,mp-1185750,0.0,4.09772724,0.0,False,"{12: 2, 47: 1, 80: 1}","[12, 47, 80]",122471801,Mg2Ag1Hg1
Ce3Mg2InAu3,mp-1227195,0.0,6.30068115,0.0,False,"{58: 3, 12: 2, 49: 1, 79: 3}","[12, 49, 58, 79]",122491583793,Ce3Mg2In1Au3
Eu(MgSb)2,mp-582736,0.0,4.5556402,0.0,False,"{63: 1, 12: 2, 51: 2}","[12, 51, 63]",122512631,Eu1Mg2Sb2
PrDyMg2,mp-862757,0.0,3.24127514,0.0,False,"{59: 1, 66: 1, 12: 2}","[12, 59, 66]",122591661,Pr1Dy1Mg2
NdDyMg2,mp-866063,0.0,3.24082778,0.0,False,"{60: 1, 66: 1, 12: 2}","[12, 60, 66]",122601661,Nd1Dy1Mg2
PmSmMg2,mp-862964,0.0,3.19667027,0.0,False,"{61: 1, 62: 1, 12: 2}","[12, 61, 62]",122611621,Pm1Sm1Mg2
PmDyMg2,mp-862902,0.0,3.18957482,0.0,False,"{61: 1, 66: 1, 12: 2}","[12, 61, 66]",122611661,Pm1Dy1Mg2
PmHoMg2,mp-862918,0.0,3.15439227,0.0,False,"{61: 1, 67: 1, 12: 2}","[12, 61, 67]",122611671,Pm1Ho1Mg2
SmDyMg2,mp-867159,0.0,3.16851489,0.0,False,"{62: 1, 66: 1, 12: 2}","[12, 62, 66]",122621661,Sm1Dy1Mg2
SmHoMg2,mp-867130,0.0,3.14972106,0.0,False,"{62: 1, 67: 1, 12: 2}","[12, 62, 67]",122621671,Sm1Ho1Mg2
SmErMg2,mp-978513,0.0,3.16033939,0.0,False,"{62: 1, 68: 1, 12: 2}","[12, 62, 68]",122621681,Sm1Er1Mg2
SmTmMg2,mp-978512,0.0,3.14008873,0.0,False,"{62: 1, 69: 1, 12: 2}","[12, 62, 69]",122621691,Sm1Tm1Mg2
TmMg2,mp-1187676,0.0,3.20555725,0.0,False,"{69: 1, 12: 2}","[12, 69]",122691,Tm1Mg2
Mg2IrPt,mp-1185768,0.0,6.06308326,0.0,False,"{12: 2, 77: 1, 78: 1}","[12, 77, 78]",122771781,Mg2Ir1Pt1
Mg2TlPb,mp-978256,0.0,5.41559333,0.0,False,"{12: 2, 81: 1, 82: 1}","[12, 81, 82]",122811821,Mg2Tl1Pb1
Y16Mg3AlNi4,mp-1216272,0.0,3.64694185,0.0,False,"{39: 16, 12: 3, 13: 1, 28: 4}","[12, 13, 28, 39]",1231312843916,Y16Mg3Al1Ni4
Mg3(AlCu2)2,mp-1222208,0.0,6.21426797,0.0,False,"{12: 3, 13: 2, 29: 4}","[12, 13, 29]",123132294,Mg3Al2Cu4
Mg3Sc,mp-1185790,0.0,3.45314048,0.0,False,"{12: 3, 21: 1}","[12, 21]",123211,Mg3Sc1
YMg3,mp-865376,0.0,3.45549197,0.0,False,"{39: 1, 12: 3}","[12, 39]",123391,Y1Mg3
La2(MgAg3)3,mp-1223267,0.0,4.68226673,0.0,False,"{57: 2, 12: 3, 47: 9}","[12, 47, 57]",123479572,La2Mg3Ag9
PmMg3,mp-1186603,0.0,3.40968154,0.0,False,"{61: 1, 12: 3}","[12, 61]",123611,Pm1Mg3
HoMg3,mp-866172,0.0,3.37086459,0.0,False,"{67: 1, 12: 3}","[12, 67]",123671,Ho1Mg3
ErMg3,mp-862681,0.0,3.35986704,0.0,False,"{68: 1, 12: 3}","[12, 68]",123681,Er1Mg3
Mg3Au13,mp-1222172,0.0,5.14814578,0.0,False,"{12: 3, 79: 13}","[12, 79]",1237913,Mg3Au13
Mg3Hg,mp-1185784,0.0,3.81807418,0.0,False,"{12: 3, 80: 1}","[12, 80]",123801,Mg3Hg1
Mg3Tl,mp-864938,0.0,4.86563399,0.0,False,"{12: 3, 81: 1}","[12, 81]",123811,Mg3Tl1
AcMg3,mp-984785,0.0,4.41276744,0.0,False,"{89: 1, 12: 3}","[12, 89]",123891,Ac1Mg3
Mg4SiGe,mp-1222125,0.38060000000000027,4.10020242,0.0,False,"{12: 4, 14: 1, 32: 1}","[12, 14, 32]",124141321,Mg4Si1Ge1
Mg4CuNi,mp-1222193,0.0,4.41143095,0.0,False,"{12: 4, 29: 1, 28: 1}","[12, 28, 29]",124281291,Mg4Cu1Ni1
Mg4CdAg5,mp-1222139,0.0,3.74617693,0.0,False,"{12: 4, 48: 1, 47: 5}","[12, 47, 48]",124475481,Mg4Cd1Ag5
Mg4Sn6Pt5,mp-1222154,0.0,6.47297772,0.0,False,"{12: 4, 50: 6, 78: 5}","[12, 50, 78]",124506785,Mg4Sn6Pt5
Mg3BH2O5F,mp-1222264,3.8004,5.33677652,0.0,False,"{12: 3, 5: 1, 1: 2, 8: 5, 9: 1}","[1, 5, 8, 9, 12]",12518591123,Mg3B1H2O5F1
AcMg5,mp-864996,0.0,3.93109596,0.0,False,"{89: 1, 12: 5}","[12, 89]",125891,Ac1Mg5
MgVCrP2(HO5)2,mp-2229489,2.0566,2.39809874,0.0,False,"{12: 1, 23: 1, 24: 1, 15: 2, 1: 2, 8: 10}","[1, 8, 12, 15, 23, 24]",12810121152231241,Mg1V1Cr1P2H2O10
KMg3AlSi3(HO6)2,mp-1223564,4.199,5.81807172,0.0,False,"{19: 1, 12: 3, 13: 1, 14: 3, 1: 2, 8: 12}","[1, 8, 12, 13, 14, 19]",12812123131143191,K1Mg3Al1Si3H2O12
KMg3GaSi3(HO6)2,mp-1223547,4.0953,5.49156286,0.0,False,"{19: 1, 12: 3, 31: 1, 14: 3, 1: 2, 8: 12}","[1, 8, 12, 14, 19, 31]",12812123143191311,K1Mg3Ga1Si3H2O12
K2CaMg5Si8(HO12)2,mp-1223917,4.401999999999999,2.38780955,0.0,False,"{19: 2, 20: 1, 12: 5, 14: 8, 1: 2, 8: 24}","[1, 8, 12, 14, 19, 20]",12824125148192201,K2Ca1Mg5Si8H2O24
Rb28(Mg3In17)3,mp-675046,0.0,3.66852824,0.0,False,"{37: 28, 12: 9, 49: 51}","[12, 37, 49]",12937284951,Rb28Mg9In51
NaMg3V3Cr3Si6B3H3O31,mp-1221086,1.4672,3.71815716,0.0,False,"{11: 1, 12: 3, 23: 3, 24: 3, 14: 6, 5: 3, 1: 3, 8: 31}","[1, 5, 8, 11, 12, 14, 23, 24]",1353831111123146233243,Na1Mg3V3Cr3Si6B3H3O31
K2MgCr2(H2O5)2,mp-24835,0.014899999999999913,1.49154905,0.0,False,"{19: 2, 12: 1, 24: 2, 1: 4, 8: 10}","[1, 8, 12, 19, 24]",14810121192242,K2Mg1Cr2H4O10
K2MgH4(I2O7)2,mp-1223767,3.3616,4.2028007,0.0,False,"{19: 2, 12: 1, 1: 4, 53: 4, 8: 14}","[1, 8, 12, 19, 53]",14814121192534,K2Mg1H4I4O14
Mg10Ge3(H2O9)2,mp-560872,3.9070000000000005,2.41457678,0.0,False,"{12: 10, 32: 3, 1: 4, 8: 18}","[1, 8, 12, 32]",148181210323,Mg10Ge3H4O18
Mg2Al2SiH4O9,mp-1222973,5.0585,6.45296889,0.0,False,"{12: 2, 13: 2, 14: 1, 1: 4, 8: 9}","[1, 8, 12, 13, 14]",1489122132141,Mg2Al2Si1H4O9
KMgP2H5O9,mp-1224014,5.0563,4.82734358,0.0,False,"{19: 1, 12: 1, 15: 2, 1: 5, 8: 9}","[1, 8, 12, 15, 19]",1589121152191,K1Mg1P2H5O9
LiMg,mp-1185380,0.0,1.78815973,0.0,False,"{3: 1, 12: 1}","[3, 12]",31121,Li1Mg1
Sr2LiMgSi3,mp-1218749,0.0,3.91056653,0.0,False,"{38: 2, 3: 1, 12: 1, 14: 3}","[3, 12, 14, 38]",31121143382,Sr2Li1Mg1Si3
LiMgP,mp-36111,1.5391000000000004,2.80762785,0.0,False,"{3: 1, 12: 1, 15: 1}","[3, 12, 15]",31121151,Li1Mg1P1
LiMgPd2,mp-977399,0.0,3.72288492,0.0,False,"{3: 1, 12: 1, 46: 2}","[3, 12, 46]",31121462,Li1Mg1Pd2
LiMgAg2,mp-1185364,0.0,2.94838845,0.0,False,"{3: 1, 12: 1, 47: 2}","[3, 12, 47]",31121472,Li1Mg1Ag2
LiMgIn2,mp-1185368,0.0,5.62825136,0.0,False,"{3: 1, 12: 1, 49: 2}","[3, 12, 49]",31121492,Li1Mg1In2
LiMgAu2,mp-977418,0.0,4.00597358,0.0,False,"{3: 1, 12: 1, 79: 2}","[3, 12, 79]",31121792,Li1Mg1Au2
LiMgHg2,mp-1185363,0.0,3.13046925,0.0,False,"{3: 1, 12: 1, 80: 2}","[3, 12, 80]",31121802,Li1Mg1Hg2
LiMgTl2,mp-864597,0.0,4.84054886,0.0,False,"{3: 1, 12: 1, 81: 2}","[3, 12, 81]",31121812,Li1Mg1Tl2
LiMgPb2,mp-1185374,0.0,5.24613695,0.0,False,"{3: 1, 12: 1, 82: 2}","[3, 12, 82]",31121822,Li1Mg1Pb2
LiMg2,mp-865939,0.0,2.4798649,0.0,False,"{3: 1, 12: 2}","[3, 12]",31122,Li1Mg2
LiMg2Zn,mp-864762,0.0,2.89270127,0.0,False,"{3: 1, 12: 2, 30: 1}","[3, 12, 30]",31122301,Li1Mg2Zn1
LiMg2Rh,mp-864601,0.0,3.59590582,0.0,False,"{3: 1, 12: 2, 45: 1}","[3, 12, 45]",31122451,Li1Mg2Rh1
LiMg2Pd,mp-977380,0.0,3.4955535,0.0,False,"{3: 1, 12: 2, 46: 1}","[3, 12, 46]",31122461,Li1Mg2Pd1
LiMg2Ag,mp-864598,0.0,3.04871526,0.0,False,"{3: 1, 12: 2, 47: 1}","[3, 12, 47]",31122471,Li1Mg2Ag1
LiMg2Cd,mp-1185359,0.0,2.801289,0.0,False,"{3: 1, 12: 2, 48: 1}","[3, 12, 48]",31122481,Li1Mg2Cd1
LiMg2Ir,mp-1232420,0.0,4.34331866,0.0,False,"{3: 1, 12: 2, 77: 1}","[3, 12, 77]",31122771,Li1Mg2Ir1
LiMg2Pt,mp-864614,0.0,4.25124687,0.0,False,"{3: 1, 12: 2, 78: 1}","[3, 12, 78]",31122781,Li1Mg2Pt1
LiMg2Au,mp-1185365,0.0,3.82338118,0.0,False,"{3: 1, 12: 2, 79: 1}","[3, 12, 79]",31122791,Li1Mg2Au1
LiMg2Hg,mp-864630,0.0,4.13493312,0.0,False,"{3: 1, 12: 2, 80: 1}","[3, 12, 80]",31122801,Li1Mg2Hg1
Li14MgSi4,mp-1222798,0.09899999999999998,1.93532854,0.0,False,"{3: 14, 12: 1, 14: 4}","[3, 12, 14]",314121144,Li14Mg1Si4
LiMgBN2,mp-1222299,2.6464,3.54419524,0.0,False,"{3: 1, 12: 1, 5: 1, 7: 2}","[3, 5, 7, 12]",315172121,Li1Mg1B1N2
LiMgN,mp-37906,2.2706999999999997,2.97936828,0.0,False,"{3: 1, 12: 1, 7: 1}","[3, 7, 12]",3171121,Li1Mg1N1
LiMgAl(MoO4)3,mp-1222672,3.5881000000000003,0.02587071,0.0,False,"{3: 1, 12: 1, 13: 1, 42: 3, 8: 12}","[3, 8, 12, 13, 42]",31812121131423,Li1Mg1Al1Mo3O12
LiMg4Al(MoO4)6,mp-1222638,3.4516,-0.06410025,0.0,False,"{3: 1, 12: 4, 13: 1, 42: 6, 8: 24}","[3, 8, 12, 13, 42]",31824124131426,Li1Mg4Al1Mo6O24
K3LiMg4(Si2O5)6,mp-694935,4.7657,1.32759845,0.0,False,"{19: 3, 3: 1, 12: 4, 14: 12, 8: 30}","[3, 8, 12, 14, 19]",318301241412193,K3Li1Mg4Si12O30
Li2MgCdP2,mp-1222661,2.004,4.56613574,0.0,False,"{3: 2, 12: 1, 48: 1, 15: 2}","[3, 12, 15, 48]",32121152481,Li2Mg1Cd1P2
Li2MgGa,mp-1222647,0.0,2.04411047,0.0,False,"{3: 2, 12: 1, 31: 1}","[3, 12, 31]",32121311,Li2Mg1Ga1
Li2MgGe,mp-1222651,0.0,2.77841535,0.0,False,"{3: 2, 12: 1, 32: 1}","[3, 12, 32]",32121321,Li2Mg1Ge1
Li2MgCd,mp-1222648,0.0,1.61979868,0.0,False,"{3: 2, 12: 1, 48: 1}","[3, 12, 48]",32121481,Li2Mg1Cd1
Li2MgSn,mp-1222615,0.04749999999999943,4.31397066,0.0,False,"{3: 2, 12: 1, 50: 1}","[3, 12, 50]",32121501,Li2Mg1Sn1
Li2MgHg,mp-1222646,0.0,2.08639135,0.0,False,"{3: 2, 12: 1, 80: 1}","[3, 12, 80]",32121801,Li2Mg1Hg1
Li2MgTl,mp-1222613,0.0,3.44738824,0.0,False,"{3: 2, 12: 1, 81: 1}","[3, 12, 81]",32121811,Li2Mg1Tl1
Li2MgPb,mp-1222652,0.0,4.10466591,0.0,False,"{3: 2, 12: 1, 82: 1}","[3, 12, 82]",32121821,Li2Mg1Pb1
Li2MgTi3O8,mp-774752,3.2916,1.83771914,0.0,False,"{3: 2, 12: 1, 22: 3, 8: 8}","[3, 8, 12, 22]",3288121223,Li2Mg1Ti3O8
Mg3BeAl8O16,mp-17313,5.1747,4.5228772,0.0,False,"{12: 3, 4: 1, 13: 8, 8: 16}","[4, 8, 12, 13]",41816123138,Mg3Be1Al8O16
Mg4AlB10,mp-1222150,0.0,6.86156305,0.0,False,"{12: 4, 13: 1, 5: 10}","[5, 12, 13]",510124131,Mg4Al1B10
MgBIr,mp-569048,0.0,6.9862206,0.0,False,"{12: 1, 5: 1, 77: 1}","[5, 12, 77]",51121771,Mg1B1Ir1
Mg3B(OF)3,mp-554542,5.4165,1.02483882,0.0,False,"{12: 3, 5: 1, 8: 3, 9: 3}","[5, 8, 9, 12]",518393123,Mg3B1O3F3
Mg(AlB14)2,mp-531611,0.7667999999999999,6.16081801,0.0,False,"{12: 1, 13: 2, 5: 28}","[5, 12, 13]",528121132,Mg1Al2B28
MgAl6FeSi2(BO9)2,mp-1222184,3.7273000000000005,3.37706205,0.0,False,"{12: 1, 13: 6, 26: 1, 14: 2, 5: 2, 8: 18}","[5, 8, 12, 13, 14, 26]",52818121136142261,Mg1Al6Fe1Si2B2O18
MgMnB2O5,mp-1222009,3.3863,2.89849745,0.0,False,"{12: 1, 25: 1, 5: 2, 8: 5}","[5, 8, 12, 25]",5285121251,Mg1Mn1B2O5
Mg4B3Ir2,mp-1222183,0.0,4.64577778,0.0,False,"{12: 4, 5: 3, 77: 2}","[5, 12, 77]",53124772,Mg4B3Ir2
Mg3Si9B36C,mp-1222229,1.0420000000000007,5.72168316,0.0,False,"{12: 3, 14: 9, 5: 36, 6: 1}","[5, 6, 12, 14]",53661123149,Mg3Si9B36C1
Mg3Mn5(BO4)4,mp-770722,0.5023,3.28900413,0.0,False,"{12: 3, 25: 5, 5: 4, 8: 16}","[5, 8, 12, 25]",54816123255,Mg3Mn5B4O16
Mg10TiSn(BO5)4,mp-1222637,3.2487,2.98721951,0.0,False,"{12: 10, 22: 1, 50: 1, 5: 4, 8: 20}","[5, 8, 12, 22, 50]",548201210221501,Mg10Ti1Sn1B4O20
MgFe(CO3)2,mp-1222048,4.2415,2.03216163,0.0,False,"{12: 1, 26: 1, 6: 2, 8: 6}","[6, 8, 12, 26]",6286121261,Mg1Fe1C2O6
MgCd(CO3)2,mp-1222080,3.5248,4.98993896,0.0,False,"{12: 1, 48: 1, 6: 2, 8: 6}","[6, 8, 12, 48]",6286121481,Mg1Cd1C2O6
Mg6Bi2PN,mp-989522,0.22609999999999975,5.1079883,0.0,False,"{12: 6, 83: 2, 15: 1, 7: 1}","[7, 12, 15, 83]",71126151832,Mg6Bi2P1N1
MgTiN2,mp-1245745,0.3650000000000002,6.55116511,0.0,False,"{12: 1, 22: 1, 7: 2}","[7, 12, 22]",72121221,Mg1Ti1N2
MgMnN2,mp-1247154,0.00039999999999995595,6.32210275,0.0,False,"{12: 1, 25: 1, 7: 2}","[7, 12, 25]",72121251,Mg1Mn1N2
MgZrN2,mp-1245429,0.5047000000000006,5.16504125,0.0,False,"{12: 1, 40: 1, 7: 2}","[7, 12, 40]",72121401,Mg1Zr1N2
MgSnN2,mp-1029791,1.0621,5.13689835,0.0,False,"{12: 1, 50: 1, 7: 2}","[7, 12, 50]",72121501,Mg1Sn1N2
HfMgN2,mp-1029834,1.6720000000000006,4.18281579,0.0,False,"{72: 1, 12: 1, 7: 2}","[7, 12, 72]",72121721,Hf1Mg1N2
Mg(NO3)2,mp-771046,3.4478,-0.47471608,0.0,False,"{12: 1, 7: 2, 8: 6}","[7, 8, 12]",7286121,Mg1N2O6
MgTa2N3,mp-39105,0.0,8.54965689,0.0,False,"{12: 1, 73: 2, 7: 3}","[7, 12, 73]",73121732,Mg1Ta2N3
Mg2VN3,mp-1029368,1.9883000000000002,3.23137164,0.0,False,"{12: 2, 23: 1, 7: 3}","[7, 12, 23]",73122231,Mg2V1N3
Mg2CrN3,mp-1029520,0.0,4.68277834,0.0,False,"{12: 2, 24: 1, 7: 3}","[7, 12, 24]",73122241,Mg2Cr1N3
Mg2NbN3,mp-1246788,1.3373999999999997,4.04288115,0.0,False,"{12: 2, 41: 1, 7: 3}","[7, 12, 41]",73122411,Mg2Nb1N3
Mg2SbN3,mp-1029378,1.3582999999999998,4.51627054,0.0,False,"{12: 2, 51: 1, 7: 3}","[7, 12, 51]",73122511,Mg2Sb1N3
Mg2TaN3,mp-1029442,3.1028000000000002,2.92217302,0.0,False,"{12: 2, 73: 1, 7: 3}","[7, 12, 73]",73122731,Mg2Ta1N3
Mg2ReN3,mp-1029627,0.25399999999999956,5.03535837,0.0,False,"{12: 2, 75: 1, 7: 3}","[7, 12, 75]",73122751,Mg2Re1N3
SrMg2(GaN2)2,mp-1218201,2.1264999999999996,5.64113069,0.0,False,"{38: 1, 12: 2, 31: 2, 7: 4}","[7, 12, 31, 38]",74122312381,Sr1Mg2Ga2N4
Mg3MoN4,mp-1245510,2.9642,6.07360936,0.0,False,"{12: 3, 42: 1, 7: 4}","[7, 12, 42]",74123421,Mg3Mo1N4
Mg3WN4,mp-1030015,1.9534000000000002,3.14289213,0.0,False,"{12: 3, 74: 1, 7: 4}","[7, 12, 74]",74123741,Mg3W1N4
MgTi4FeO10,mp-1221997,1.3942999999999999,3.08086603,0.0,False,"{12: 1, 22: 4, 26: 1, 8: 10}","[8, 12, 22, 26]",810121224261,Mg1Ti4Fe1O10
KMg3AlSi3(O5F)2,mp-1223512,4.310700000000001,6.05735707,0.0,False,"{19: 1, 12: 3, 13: 1, 14: 3, 8: 10, 9: 2}","[8, 9, 12, 13, 14, 19]",81092123131143191,K1Mg3Al1Si3O10F2