formula,material_id,band_gap,efermi,energy_above_hull,database_IDs,comp_atoms,sorted_keys_comp_atoms,comp_number,new_formula
KMg3AlGe3(O5F)2,mp-1223527,2.9396999999999998,0.54450906,0.0,False,"{19: 1, 12: 3, 13: 1, 32: 3, 8: 10, 9: 2}","[8, 9, 12, 13, 19, 32]",81092123131191323,K1Mg3Al1Ge3O10F2
NaMg3Si4O11F,mp-1173560,4.4609000000000005,2.43342468,0.0,False,"{11: 1, 12: 3, 14: 4, 8: 11, 9: 1}","[8, 9, 11, 12, 14]",81191111123144,Na1Mg3Si4O11F1
NaCaMgCr(SiO3)4,mp-1221077,3.5919000000000003,2.97660087,0.0,False,"{11: 1, 20: 1, 12: 1, 24: 1, 14: 4, 8: 12}","[8, 11, 12, 14, 20, 24]",812111121144201241,Na1Ca1Mg1Cr1Si4O12
NaCaMgFe(SiO3)4,mp-1221075,2.9279,5.62298681,0.0,False,"{11: 1, 20: 1, 12: 1, 26: 1, 14: 4, 8: 12}","[8, 11, 12, 14, 20, 26]",812111121144201261,Na1Ca1Mg1Fe1Si4O12
NaMgSc(SO4)3,mp-2714261,4.237,0.63646837,0.0,False,"{11: 1, 12: 1, 21: 1, 16: 3, 8: 12}","[8, 11, 12, 16, 21]",812111121163211,Na1Mg1Sc1S3O12
NaMgFe(SO4)3,mp-1173576,1.87,0.60170738,0.0,False,"{11: 1, 12: 1, 26: 1, 16: 3, 8: 12}","[8, 11, 12, 16, 26]",812111121163261,Na1Mg1Fe1S3O12
NaMgGa(SO4)3,mp-2714113,3.3255,1.06277806,0.0,False,"{11: 1, 12: 1, 31: 1, 16: 3, 8: 12}","[8, 11, 12, 16, 31]",812111121163311,Na1Mg1Ga1S3O12
NaMgIn(SO4)3,mp-2714294,3.5185000000000004,0.98171175,0.0,False,"{11: 1, 12: 1, 49: 1, 16: 3, 8: 12}","[8, 11, 12, 16, 49]",812111121163491,Na1Mg1In1S3O12
NaMg2(SO4)3,mp-1210333,0.0003999999999999976,0.03919561,0.0,False,"{11: 1, 12: 2, 16: 3, 8: 12}","[8, 11, 12, 16]",812111122163,Na1Mg2S3O12
NaCa2Mg2V3O12,mp-706239,3.0239000000000003,1.25825929,0.0,False,"{11: 1, 20: 2, 12: 2, 23: 3, 8: 12}","[8, 11, 12, 20, 23]",812111122202233,Na1Ca2Mg2V3O12
NaCa2Mg2(AsO4)3,mp-677573,2.9898000000000002,2.03500564,0.0,False,"{11: 1, 20: 2, 12: 2, 33: 3, 8: 12}","[8, 11, 12, 20, 33]",812111122202333,Na1Ca2Mg2As3O12
Na4MgSc(PO4)3,mp-2714963,4.552899999999999,1.75829968,0.0,False,"{11: 4, 12: 1, 21: 1, 15: 3, 8: 12}","[8, 11, 12, 15, 21]",812114121153211,Na4Mg1Sc1P3O12
Na4MgFe(PO4)3,mp-1221187,2.2459999999999996,3.96696743,0.0,False,"{11: 4, 12: 1, 26: 1, 15: 3, 8: 12}","[8, 11, 12, 15, 26]",812114121153261,Na4Mg1Fe1P3O12
Rb2MgSi5O12,mp-1020860,4.4847,4.72537433,0.0,False,"{37: 2, 12: 1, 14: 5, 8: 12}","[8, 12, 14, 37]",812121145372,Rb2Mg1Si5O12
MgFe(PO3)4,mp-1045790,5.115399999999999,2.07961028,0.0,False,"{12: 1, 26: 1, 15: 4, 8: 12}","[8, 12, 15, 26]",812121154261,Mg1Fe1P4O12
MgCo(PO3)4,mp-1045773,3.6318,1.91195263,0.0,False,"{12: 1, 27: 1, 15: 4, 8: 12}","[8, 12, 15, 27]",812121154271,Mg1Co1P4O12
MgNi(PO3)4,mp-1045786,4.3173,1.40582199,0.0,False,"{12: 1, 28: 1, 15: 4, 8: 12}","[8, 12, 15, 28]",812121154281,Mg1Ni1P4O12
MgTi(SO4)3,mp-2713802,2.2257000000000002,0.32153004,0.0,False,"{12: 1, 22: 1, 16: 3, 8: 12}","[8, 12, 16, 22]",812121163221,Mg1Ti1S3O12
MgZr(SO4)3,mp-2713981,4.0419,-0.19901819,0.0,False,"{12: 1, 40: 1, 16: 3, 8: 12}","[8, 12, 16, 40]",812121163401,Mg1Zr1S3O12
MgSn(SO4)3,mp-2713729,2.2233,0.59030837,0.0,False,"{12: 1, 50: 1, 16: 3, 8: 12}","[8, 12, 16, 50]",812121163501,Mg1Sn1S3O12
HfMg(SO4)3,mp-2713884,4.8006,-0.14225168,0.0,False,"{72: 1, 12: 1, 16: 3, 8: 12}","[8, 12, 16, 72]",812121163721,Hf1Mg1S3O12
KMgIn(MoO4)3,mp-698655,3.487,-0.94471571,0.0,False,"{19: 1, 12: 1, 49: 1, 42: 3, 8: 12}","[8, 12, 19, 42, 49]",812121191423491,K1Mg1In1Mo3O12
MgMnV4O12,mp-2232942,2.1181,0.04308616,0.0,False,"{12: 1, 25: 1, 23: 4, 8: 12}","[8, 12, 23, 25]",812121234251,Mg1Mn1V4O12
Ba4Mg(BiO4)3,mp-1147558,0.2362000000000002,3.80793671,0.0,False,"{56: 4, 12: 1, 83: 3, 8: 12}","[8, 12, 56, 83]",812121564833,Ba4Mg1Bi3O12
KCa2Mg2V3O12,mp-1224080,3.3434,0.93718395,0.0,False,"{19: 1, 20: 2, 12: 2, 23: 3, 8: 12}","[8, 12, 19, 20, 23]",812122191202233,K1Ca2Mg2V3O12
Ba3SrMg2(TeO6)2,mp-1228054,1.9849999999999994,5.59225068,0.0,False,"{56: 3, 38: 1, 12: 2, 52: 2, 8: 12}","[8, 12, 38, 52, 56]",812122381522563,Ba3Sr1Mg2Te2O12
MgV4Cu3O14,mp-1222158,0.34809999999999985,1.08978636,0.0,False,"{12: 1, 23: 4, 29: 3, 8: 14}","[8, 12, 23, 29]",814121234293,Mg1V4Cu3O14
Mg2Ti7O15,mp-759694,0.0,5.18355017,0.0,False,"{12: 2, 22: 7, 8: 15}","[8, 12, 22]",815122227,Mg2Ti7O15
Na2Mg3(MoO4)4,mp-1221800,3.6565000000000003,3.64926383,0.0,False,"{11: 2, 12: 3, 42: 4, 8: 16}","[8, 11, 12, 42]",816112123424,Na2Mg3Mo4O16
K2MgZr(MoO4)4,mp-1223759,3.0641,1.9651644,0.0,False,"{19: 2, 12: 1, 40: 1, 42: 4, 8: 16}","[8, 12, 19, 40, 42]",816121192401424,K2Mg1Zr1Mo4O16
LaMgAl11O19,mp-1223152,4.212899999999999,9.84032427,0.0,False,"{57: 1, 12: 1, 13: 11, 8: 19}","[8, 12, 13, 57]",8191211311571,La1Mg1Al11O19
K4MgFe3(PO4)5,mp-532755,2.2881,0.74321349,0.0,False,"{19: 4, 12: 1, 26: 3, 15: 5, 8: 20}","[8, 12, 15, 19, 26]",820121155194263,K4Mg1Fe3P5O20
Mg3Ti9O20,mp-762447,0.0,5.06319218,0.0,False,"{12: 3, 22: 9, 8: 20}","[8, 12, 22]",820123229,Mg3Ti9O20
K2MgO2,mp-755802,2.5286,0.86766367,0.0,False,"{19: 2, 12: 1, 8: 2}","[8, 12, 19]",82121192,K2Mg1O2
Rb2MgO2,mp-1541753,2.3110999999999997,1.17822026,0.0,False,"{37: 2, 12: 1, 8: 2}","[8, 12, 37]",82121372,Rb2Mg1O2
KNaCaMg5Si8(O11F)2,mp-1223435,4.6631,2.42427254,0.0,False,"{19: 1, 11: 1, 20: 1, 12: 5, 14: 8, 8: 22, 9: 2}","[8, 9, 11, 12, 14, 19, 20]",82292111125148191201,K1Na1Ca1Mg5Si8O22F2
Na2CaMg5Si8(O11F)2,mp-1221470,4.5395,2.3884187,0.0,False,"{11: 2, 20: 1, 12: 5, 14: 8, 8: 22, 9: 2}","[8, 9, 11, 12, 14, 20]",82292112125148201,Na2Ca1Mg5Si8O22F2
Na3Mg4ScSi8(O11F)2,mp-1173812,4.553699999999999,6.87429562,0.0,False,"{11: 3, 12: 4, 21: 1, 14: 8, 8: 22, 9: 2}","[8, 9, 11, 12, 14, 21]",82292113124148211,Na3Mg4Sc1Si8O22F2
Na3Mg4CrSi8(O11F)2,mp-1173822,3.4494999999999996,5.90752449,0.0,False,"{11: 3, 12: 4, 24: 1, 14: 8, 8: 22, 9: 2}","[8, 9, 11, 12, 14, 24]",82292113124148241,Na3Mg4Cr1Si8O22F2
Na3Mg4InSi8(O11F)2,mp-1173861,4.0872,2.42976823,0.0,False,"{11: 3, 12: 4, 49: 1, 14: 8, 8: 22, 9: 2}","[8, 9, 11, 12, 14, 49]",82292113124148491,Na3Mg4In1Si8O22F2
Na2Mg3Ti(SO4)6,mp-2714037,0.4291999999999998,1.84291247,0.0,False,"{11: 2, 12: 3, 22: 1, 16: 6, 8: 24}","[8, 11, 12, 16, 22]",824112123166221,Na2Mg3Ti1S6O24
Na2Mg3Zr(SO4)6,mp-2714179,2.0298,1.76780799,0.0,False,"{11: 2, 12: 3, 40: 1, 16: 6, 8: 24}","[8, 11, 12, 16, 40]",824112123166401,Na2Mg3Zr1S6O24
Na2Mg3Sn(SO4)6,mp-2714248,0.44340000000000024,2.08666862,0.0,False,"{11: 2, 12: 3, 50: 1, 16: 6, 8: 24}","[8, 11, 12, 16, 50]",824112123166501,Na2Mg3Sn1S6O24
Na2HfMg3(SO4)6,mp-2714036,2.7172,1.87401401,0.0,False,"{11: 2, 72: 1, 12: 3, 16: 6, 8: 24}","[8, 11, 12, 16, 72]",824112123166721,Na2Hf1Mg3S6O24
Na2Mg5(MoO4)6,mp-1221409,3.7513,3.57320289,0.0,False,"{11: 2, 12: 5, 42: 6, 8: 24}","[8, 11, 12, 42]",824112125426,Na2Mg5Mo6O24
Na3Mg3In(SO4)6,mp-532701,0.0,2.80614852,0.0,False,"{11: 3, 12: 3, 49: 1, 16: 6, 8: 24}","[8, 11, 12, 16, 49]",824113123166491,Na3Mg3In1S6O24
MgTi4(PO4)6,mp-1222070,2.4111000000000002,1.04102609,0.0,False,"{12: 1, 22: 4, 15: 6, 8: 24}","[8, 12, 15, 22]",824121156224,Mg1Ti4P6O24
Cs4MgZr3(PO4)6,mp-690929,3.7689000000000004,1.5370732,0.0,False,"{55: 4, 12: 1, 40: 3, 15: 6, 8: 24}","[8, 12, 15, 40, 55]",824121156403554,Cs4Mg1Zr3P6O24
MgZr4(PO4)6,mp-1222466,4.292,0.05111839,0.0,False,"{12: 1, 40: 4, 15: 6, 8: 24}","[8, 12, 15, 40]",824121156404,Mg1Zr4P6O24
MgCr3Se3(SO8)3,mp-773053,0.15489999999999998,-0.07730574,0.0,False,"{12: 1, 24: 3, 34: 3, 16: 3, 8: 24}","[8, 12, 16, 24, 34]",824121163243343,Mg1Cr3Se3S3O24
KNaMg3Zn2(Si2O5)6,mp-1223684,4.285,1.18911416,0.0,False,"{19: 1, 11: 1, 12: 3, 30: 2, 14: 12, 8: 30}","[8, 11, 12, 14, 19, 30]",8301111231412191302,K1Na1Mg3Zn2Si12O30
RbNaMg3Zn2(Si2O5)6,mp-1219802,4.2766,1.21160875,0.0,False,"{37: 1, 11: 1, 12: 3, 30: 2, 14: 12, 8: 30}","[8, 11, 12, 14, 30, 37]",8301111231412302371,Rb1Na1Mg3Zn2Si12O30
RbNaMg5(Si2O5)6,mp-1173467,4.792400000000001,1.23889928,0.0,False,"{37: 1, 11: 1, 12: 5, 14: 12, 8: 30}","[8, 11, 12, 14, 37]",8301111251412371,Rb1Na1Mg5Si12O30
Ba4MgTa10O30,mp-1228584,2.4682000000000004,1.81436181,0.0,False,"{56: 4, 12: 1, 73: 10, 8: 30}","[8, 12, 56, 73]",8301215647310,Ba4Mg1Ta10O30
K2Mg3Zn2(Si2O5)6,mp-1224589,4.388999999999999,1.09116518,0.0,False,"{19: 2, 12: 3, 30: 2, 14: 12, 8: 30}","[8, 12, 14, 19, 30]",8301231412192302,K2Mg3Zn2Si12O30
K2Mg5(Si2O5)6,mp-1224161,4.8751,1.17961859,0.0,False,"{19: 2, 12: 5, 14: 12, 8: 30}","[8, 12, 14, 19]",8301251412192,K2Mg5Si12O30
Mg5Ti13O30,mp-759796,0.0,4.98795831,0.0,False,"{12: 5, 22: 13, 8: 30}","[8, 12, 22]",8301252213,Mg5Ti13O30
Sr10Mg5Mo3(WO15)2,mp-1218906,2.3303000000000003,2.61619367,0.0,False,"{38: 10, 12: 5, 42: 3, 74: 2, 8: 30}","[8, 12, 38, 42, 74]",8301253810423742,Sr10Mg5Mo3W2O30
Sr10Mg5Mo4WO30,mp-1218905,2.3794999999999997,2.62685607,0.0,False,"{38: 10, 12: 5, 42: 4, 74: 1, 8: 30}","[8, 12, 38, 42, 74]",8301253810424741,Sr10Mg5Mo4W1O30
MgVO3,mp-27186,2.4779999999999998,1.05424075,0.0,False,"{12: 1, 23: 1, 8: 3}","[8, 12, 23]",83121231,Mg1V1O3
MgMnO3,mp-770618,1.5712999999999995,2.96879477,0.0,False,"{12: 1, 25: 1, 8: 3}","[8, 12, 25]",83121251,Mg1Mn1O3
Mg5Co19O32,mp-767791,0.02059999999999995,4.26850679,0.0,False,"{12: 5, 27: 19, 8: 32}","[8, 12, 27]",8321252719,Mg5Co19O32
Na3Mg5Nb(SO4)9,mp-2714163,1.5787,1.27827428,0.0,False,"{11: 3, 12: 5, 41: 1, 16: 9, 8: 36}","[8, 11, 12, 16, 41]",836113125169411,Na3Mg5Nb1S9O36
Na3Mg5Ta(SO4)9,mp-2714027,2.1718,1.48422841,0.0,False,"{11: 3, 12: 5, 73: 1, 16: 9, 8: 36}","[8, 11, 12, 16, 73]",836113125169731,Na3Mg5Ta1S9O36
MgNb5(PO4)9,mp-2713885,2.369,0.19846714,0.0,False,"{12: 1, 41: 5, 15: 9, 8: 36}","[8, 12, 15, 41]",836121159415,Mg1Nb5P9O36
MgTa5(PO4)9,mp-2713741,3.2116000000000002,0.45171404,0.0,False,"{12: 1, 73: 5, 15: 9, 8: 36}","[8, 12, 15, 73]",836121159735,Mg1Ta5P9O36
Mg4Nb2(SO4)9,mp-2713744,2.3291,0.19960865,0.0,False,"{12: 4, 41: 2, 16: 9, 8: 36}","[8, 12, 16, 41]",836124169412,Mg4Nb2S9O36
Mg4Ta2(SO4)9,mp-2713918,3.0504,0.4062209,0.0,False,"{12: 4, 73: 2, 16: 9, 8: 36}","[8, 12, 16, 73]",836124169732,Mg4Ta2S9O36
MgVCrO4,mp-1221990,1.8579000000000003,3.90063664,0.0,False,"{12: 1, 23: 1, 24: 1, 8: 4}","[8, 12, 23, 24]",84121231241,Mg1V1Cr1O4
MgV2O4,mp-1040943,1.3994000000000004,4.17937443,0.0,False,"{12: 1, 23: 2, 8: 4}","[8, 12, 23]",84121232,Mg1V2O4
Mg(CoO2)2,mp-756442,0.0,4.21491644,0.0,False,"{12: 1, 27: 2, 8: 4}","[8, 12, 27]",84121272,Mg1Co2O4
Mg(CuO2)2,mp-1041631,0.16280000000000028,3.58427225,0.0,False,"{12: 1, 29: 2, 8: 4}","[8, 12, 29]",84121292,Mg1Cu2O4
Mg(GaO2)2,mp-38951,2.4348999999999994,2.54928147,0.0,False,"{12: 1, 31: 2, 8: 4}","[8, 12, 31]",84121312,Mg1Ga2O4
MgUO4,mp-2271432,1.6809000000000003,4.02168949,0.0,False,"{12: 1, 92: 1, 8: 4}","[8, 12, 92]",84121921,Mg1U1O4
Mg2TiO4,mp-757031,3.3894,2.48710325,0.0,False,"{12: 2, 22: 1, 8: 4}","[8, 12, 22]",84122221,Mg2Ti1O4
Mg2SnO4,mp-34022,2.5338,3.70778492,0.0,False,"{12: 2, 50: 1, 8: 4}","[8, 12, 50]",84122501,Mg2Sn1O4
Mg2PtO4,mp-33940,1.1505,3.97216682,0.0,False,"{12: 2, 78: 1, 8: 4}","[8, 12, 78]",84122781,Mg2Pt1O4
Mg3NiO4,mp-1099253,3.2945,5.06981207,0.0,False,"{12: 3, 28: 1, 8: 4}","[8, 12, 28]",84123281,Mg3Ni1O4
Na2Mg5Ti3(SO4)12,mp-2714656,1.5087000000000002,0.8366085,0.0,False,"{11: 2, 12: 5, 22: 3, 16: 12, 8: 48}","[8, 11, 12, 16, 22]",8481121251612223,Na2Mg5Ti3S12O48
Na2Mg5Zr3(SO4)12,mp-2714886,2.9207,0.74431279,0.0,False,"{11: 2, 12: 5, 40: 3, 16: 12, 8: 48}","[8, 11, 12, 16, 40]",8481121251612403,Na2Mg5Zr3S12O48
Na2Mg5Sn3(SO4)12,mp-2714642,1.5463,1.29328594,0.0,False,"{11: 2, 12: 5, 50: 3, 16: 12, 8: 48}","[8, 11, 12, 16, 50]",8481121251612503,Na2Mg5Sn3S12O48
Na2Hf3Mg5(SO4)12,mp-2714716,3.5146000000000006,0.7792719,0.0,False,"{11: 2, 72: 3, 12: 5, 16: 12, 8: 48}","[8, 11, 12, 16, 72]",8481121251612723,Na2Hf3Mg5S12O48
Na5Mg5In3(SO4)12,mp-677416,3.6949999999999994,4.67238071,0.0,False,"{11: 5, 12: 5, 49: 3, 16: 12, 8: 48}","[8, 11, 12, 16, 49]",8481151251612493,Na5Mg5In3S12O48
Na6Mg7Ti(SO4)12,mp-2714978,1.9357000000000002,1.13338383,0.0,False,"{11: 6, 12: 7, 22: 1, 16: 12, 8: 48}","[8, 11, 12, 16, 22]",8481161271612221,Na6Mg7Ti1S12O48
Na6Mg7Zr(SO4)12,mp-2715012,3.3357,1.17304544,0.0,False,"{11: 6, 12: 7, 40: 1, 16: 12, 8: 48}","[8, 11, 12, 16, 40]",8481161271612401,Na6Mg7Zr1S12O48
Na6HfMg7(SO4)12,mp-2715166,4.224,1.12875916,0.0,False,"{11: 6, 72: 1, 12: 7, 16: 12, 8: 48}","[8, 11, 12, 16, 72]",8481161271612721,Na6Hf1Mg7S12O48
Na7Mg7Fe5(PO4)12,mp-1173791,2.2482,2.25305721,0.0,False,"{11: 7, 12: 7, 26: 5, 15: 12, 8: 48}","[8, 11, 12, 15, 26]",8481171271512265,Na7Mg7Fe5P12O48
MgZr3Tl10(MoO4)12,mp-726071,2.9435000000000002,0.79063105,0.0,False,"{12: 1, 40: 3, 81: 10, 42: 12, 8: 48}","[8, 12, 40, 42, 81]",84812140342128110,Mg1Zr3Tl10Mo12O48
Ca19Mg2(PO4)14,mp-1228644,5.077,2.04171373,0.0,False,"{20: 19, 12: 2, 15: 14, 8: 56}","[8, 12, 15, 20]",85612215142019,Ca19Mg2P14O56
Mg11Ti25O60,mp-757825,0.0,4.46562914,0.0,False,"{12: 11, 22: 25, 8: 60}","[8, 12, 22]",86012112225,Mg11Ti25O60
NaMgNiIO6,mp-2223065,2.1715,1.86631029,0.0,False,"{11: 1, 12: 1, 28: 1, 53: 1, 8: 6}","[8, 11, 12, 28, 53]",86111121281531,Na1Mg1Ni1I1O6
NaLaMgWO6,mp-1173567,3.5197000000000003,7.12767621,0.0,False,"{11: 1, 57: 1, 12: 1, 74: 1, 8: 6}","[8, 11, 12, 57, 74]",86111121571741,Na1La1Mg1W1O6
KMgNiIO6,mp-2222843,2.3441,1.35997538,0.0,False,"{19: 1, 12: 1, 28: 1, 53: 1, 8: 6}","[8, 12, 19, 28, 53]",86121191281531,K1Mg1Ni1I1O6
CaSmMgNbO6,mp-1227140,3.5820000000000003,5.89569761,0.0,False,"{20: 1, 62: 1, 12: 1, 41: 1, 8: 6}","[8, 12, 20, 41, 62]",86121201411621,Ca1Sm1Mg1Nb1O6
CaLaMgTaO6,mp-684801,3.9824999999999995,3.75961271,0.0,False,"{20: 1, 57: 1, 12: 1, 73: 1, 8: 6}","[8, 12, 20, 57, 73]",86121201571731,Ca1La1Mg1Ta1O6
Ca2MgReO6,mp-1227487,0.0,4.96763414,0.0,False,"{20: 2, 12: 1, 75: 1, 8: 6}","[8, 12, 20, 75]",86121202751,Ca2Mg1Re1O6
MgTi2NiO6,mp-1221952,0.0,4.83365183,0.0,False,"{12: 1, 22: 2, 28: 1, 8: 6}","[8, 12, 22, 28]",86121222281,Mg1Ti2Ni1O6
La2MgVO6,mp-1411395,1.7390999999999996,6.68417595,0.0,False,"{57: 2, 12: 1, 23: 1, 8: 6}","[8, 12, 23, 57]",86121231572,La2Mg1V1O6
La2MgNiO6,mp-1391671,1.3640999999999996,7.79694159,0.0,False,"{57: 2, 12: 1, 28: 1, 8: 6}","[8, 12, 28, 57]",86121281572,La2Mg1Ni1O6
Mg(BrO3)2,mp-1078861,4.1446,-0.35407208,0.0,False,"{12: 1, 35: 2, 8: 6}","[8, 12, 35]",86121352,Mg1Br2O6
SrLaMgRuO6,mp-1218208,0.3373999999999997,5.3793323,0.0,False,"{38: 1, 57: 1, 12: 1, 44: 1, 8: 6}","[8, 12, 38, 44, 57]",86121381441571,Sr1La1Mg1Ru1O6
SrPrMgRuO6,mp-1218058,0.3557000000000001,4.18074273,0.0,False,"{38: 1, 59: 1, 12: 1, 44: 1, 8: 6}","[8, 12, 38, 44, 59]",86121381441591,Sr1Pr1Mg1Ru1O6
SrNdMgRuO6,mp-1218129,0.3618999999999999,4.11727524,0.0,False,"{38: 1, 60: 1, 12: 1, 44: 1, 8: 6}","[8, 12, 38, 44, 60]",86121381441601,Sr1Nd1Mg1Ru1O6
SrLaMgTaO6,mp-1218203,4.0756000000000006,7.76007728,0.0,False,"{38: 1, 57: 1, 12: 1, 73: 1, 8: 6}","[8, 12, 38, 57, 73]",86121381571731,Sr1La1Mg1Ta1O6
Mg2NiIrO6,mp-1345538,0.0,4.64406416,0.0,False,"{12: 2, 28: 1, 77: 1, 8: 6}","[8, 12, 28, 77]",86122281771,Mg2Ni1Ir1O6
MgCrP2O7,mp-1042039,2.8254,3.45009934,0.0,False,"{12: 1, 24: 1, 15: 2, 8: 7}","[8, 12, 15, 24]",87121152241,Mg1Cr1P2O7
MgFeP2O7,mp-1042037,4.082,2.77667287,0.0,False,"{12: 1, 26: 1, 15: 2, 8: 7}","[8, 12, 15, 26]",87121152261,Mg1Fe1P2O7
MgCuP2O7,mp-1041741,0.3723000000000001,3.12560547,0.0,False,"{12: 1, 29: 1, 15: 2, 8: 7}","[8, 12, 15, 29]",87121152291,Mg1Cu1P2O7
MgCo2(PO4)2,mp-1222089,0.0,2.81290408,0.0,False,"{12: 1, 27: 2, 15: 2, 8: 8}","[8, 12, 15, 27]",88121152272,Mg1Co2P2O8
MgFe2Mo2(ClO4)2,mp-2226692,2.6563999999999997,0.40614775,0.0,False,"{12: 1, 26: 2, 42: 2, 17: 2, 8: 8}","[8, 12, 17, 26, 42]",88121172262422,Mg1Fe2Mo2Cl2O8
Mg(ReO4)2,mp-1541458,3.9756,1.85102945,0.0,False,"{12: 1, 75: 2, 8: 8}","[8, 12, 75]",88121752,Mg1Re2O8
Mg2V2CoO8,mp-1222196,2.5147,2.0105296,0.0,False,"{12: 2, 23: 2, 27: 1, 8: 8}","[8, 12, 23, 27]",88122232271,Mg2V2Co1O8
Mg2Mn3O8,mp-770423,1.0377,2.50494115,0.0,False,"{12: 2, 25: 3, 8: 8}","[8, 12, 25]",88122253,Mg2Mn3O8
Mg3MnNi3O8,mp-1222170,2.0422000000000002,3.80367142,0.0,False,"{12: 3, 25: 1, 28: 3, 8: 8}","[8, 12, 25, 28]",88123251283,Mg3Mn1Ni3O8
Mg3(AsO4)2,mp-758196,3.0322999999999998,2.28066128,0.0,False,"{12: 3, 33: 2, 8: 8}","[8, 12, 33]",88123332,Mg3As2O8
CsMg(PO3)3,mp-1229321,4.8517,0.22492852,0.0,False,"{55: 1, 12: 1, 15: 3, 8: 9}","[8, 12, 15, 55]",89121153551,Cs1Mg1P3O9
Ba3MgTaNbO9,mp-1228058,2.8443,5.21274223,0.0,False,"{56: 3, 12: 1, 73: 1, 41: 1, 8: 9}","[8, 12, 41, 56, 73]",89121411563731,Ba3Mg1Ta1Nb1O9
Mg4Sb2O9,mp-676305,2.1611000000000002,4.23910554,0.0,False,"{12: 4, 51: 2, 8: 9}","[8, 12, 51]",89124512,Mg4Sb2O9
Ba2MgCu3F14,mp-1045463,0.0,0.15499026,0.0,False,"{56: 2, 12: 1, 29: 3, 9: 14}","[9, 12, 29, 56]",914121293562,Ba2Mg1Cu3F14
MgTlF3,mp-998739,4.2135,2.00429944,0.0,False,"{12: 1, 81: 1, 9: 3}","[9, 12, 81]",93121811,Mg1Tl1F3
MgCuF5,mp-1404142,0.0,-1.50200431,0.0,False,"{12: 1, 29: 1, 9: 5}","[9, 12, 29]",95121291,Mg1Cu1F5
Cs2NaMgF6,mp-989568,0.0,-1.90800358,0.0,False,"{55: 2, 11: 1, 12: 1, 9: 6}","[9, 11, 12, 55]",96111121552,Cs2Na1Mg1F6
RbMgAlF6,mp-1219581,6.6897,5.09063868,0.0,False,"{37: 1, 12: 1, 13: 1, 9: 6}","[9, 12, 13, 37]",96121131371,Rb1Mg1Al1F6
CsMgAlF6,mp-1225922,6.8485,-1.1575316,0.0,False,"{55: 1, 12: 1, 13: 1, 9: 6}","[9, 12, 13, 55]",96121131551,Cs1Mg1Al1F6
MgTiF6,mp-1399447,4.6253,1.69046186,0.0,False,"{12: 1, 22: 1, 9: 6}","[9, 12, 22]",96121221,Mg1Ti1F6
MgMnF6,mp-1391800,2.8029,-0.14137639,0.0,False,"{12: 1, 25: 1, 9: 6}","[9, 12, 25]",96121251,Mg1Mn1F6
CsMgFeF6,mp-1225928,3.4448999999999996,-1.64358006,0.0,False,"{55: 1, 12: 1, 26: 1, 9: 6}","[9, 12, 26, 55]",96121261551,Cs1Mg1Fe1F6
MgCoF6,mp-1443950,1.162,-1.83985961,0.0,False,"{12: 1, 27: 1, 9: 6}","[9, 12, 27]",96121271,Mg1Co1F6
CsMgCoF6,mp-1225938,1.9747,0.23454529,0.0,False,"{55: 1, 12: 1, 27: 1, 9: 6}","[9, 12, 27, 55]",96121271551,Cs1Mg1Co1F6
MgNiF6,mp-1409292,0.0,-1.56551096,0.0,False,"{12: 1, 28: 1, 9: 6}","[9, 12, 28]",96121281,Mg1Ni1F6
CsMgGaF6,mp-1225927,5.6419,3.87985303,0.0,False,"{55: 1, 12: 1, 31: 1, 9: 6}","[9, 12, 31, 55]",96121311551,Cs1Mg1Ga1F6
MgMoF6,mp-1398330,2.4449,-1.06985922,0.0,False,"{12: 1, 42: 1, 9: 6}","[9, 12, 42]",96121421,Mg1Mo1F6
CsMgInF6,mp-1225951,4.5677,3.34722991,0.0,False,"{55: 1, 12: 1, 49: 1, 9: 6}","[9, 12, 49, 55]",96121491551,Cs1Mg1In1F6
MgSnF6,mp-1397451,4.9612,-2.15411904,0.0,False,"{12: 1, 50: 1, 9: 6}","[9, 12, 50]",96121501,Mg1Sn1F6
MgWF6,mp-1407403,3.7420999999999998,-1.0794478,0.0,False,"{12: 1, 74: 1, 9: 6}","[9, 12, 74]",96121741,Mg1W1F6
BaMgVF7,mp-1047850,2.4216,0.62609845,0.0,False,"{56: 1, 12: 1, 23: 1, 9: 7}","[9, 12, 23, 56]",97121231561,Ba1Mg1V1F7
BaMgCuF7,mp-1041212,0.49060000000000004,-0.70358105,0.0,False,"{56: 1, 12: 1, 29: 1, 9: 7}","[9, 12, 29, 56]",97121291561,Ba1Mg1Cu1F7
BaMgMoF7,mp-1047848,4.7417,0.60363584,0.0,False,"{56: 1, 12: 1, 42: 1, 9: 7}","[9, 12, 42, 56]",97121421561,Ba1Mg1Mo1F7