formula,material_id,band_gap,efermi,energy_above_hull,database_IDs,comp_atoms,sorted_keys_comp_atoms,comp_number,new_formula
NaMgTl2,mp-865110,0.0,4.44085869,0.0,False,"{11: 1, 12: 1, 81: 2}","[11, 12, 81]",111121812,Na1Mg1Tl2
NaMgPb2,mp-865107,0.0,4.97124444,0.0,False,"{11: 1, 12: 1, 82: 2}","[11, 12, 82]",111121822,Na1Mg1Pb2
K3Na7Mg2H12S6(NO18)2,mp-1224548,3.4588,3.10465825,0.0,False,"{19: 3, 11: 7, 12: 2, 1: 12, 16: 6, 7: 2, 8: 36}","[1, 7, 8, 11, 12, 16, 19]",11272836117122166193,K3Na7Mg2H12S6N2O36
Cs2MgCr2(H6O7)2,mp-1215128,3.2252,-1.53697147,0.0,False,"{55: 2, 12: 1, 24: 2, 1: 12, 8: 14}","[1, 8, 12, 24, 55]",112814121242552,Cs2Mg1Cr2H12O14
MgAsH16NO10,mp-1222268,4.4927,-1.33953932,0.0,False,"{12: 1, 33: 1, 1: 16, 7: 1, 8: 10}","[1, 7, 8, 12, 33]",11671810121331,Mg1As1H16N1O10
Tb17Mg11Ni8,mp-1217746,0.0,3.72030834,0.0,False,"{65: 17, 12: 11, 28: 8}","[12, 28, 65]",12112886517,Tb17Mg11Ni8
MgSc2Al,mp-977580,0.0,4.63334914,0.0,False,"{12: 1, 21: 2, 13: 1}","[12, 13, 21]",121131212,Mg1Sc2Al1
Gd8MgAlNi2,mp-1225213,0.0,3.63172158,0.0,False,"{64: 8, 12: 1, 13: 1, 28: 2}","[12, 13, 28, 64]",121131282648,Gd8Mg1Al1Ni2
YMgAlGe2,mp-1215910,0.0,4.09347163,0.0,False,"{39: 1, 12: 1, 13: 1, 32: 2}","[12, 13, 32, 39]",121131322391,Y1Mg1Al1Ge2
Y2MgAl,mp-865602,0.0,4.09329367,0.0,False,"{39: 2, 12: 1, 13: 1}","[12, 13, 39]",121131392,Y2Mg1Al1
MgAlRh2,mp-865155,0.0,6.6319041,0.0,False,"{12: 1, 13: 1, 45: 2}","[12, 13, 45]",121131452,Mg1Al1Rh2
MgAlPd2,mp-865152,0.0,6.29877939,0.0,False,"{12: 1, 13: 1, 46: 2}","[12, 13, 46]",121131462,Mg1Al1Pd2
MgAlAg2,mp-865919,0.0,5.32381355,0.0,False,"{12: 1, 13: 1, 47: 2}","[12, 13, 47]",121131472,Mg1Al1Ag2
Nd2MgAl,mp-864610,0.0,3.89914259,0.0,False,"{60: 2, 12: 1, 13: 1}","[12, 13, 60]",121131602,Nd2Mg1Al1
Pm2MgAl,mp-863698,0.0,3.9003131,0.0,False,"{61: 2, 12: 1, 13: 1}","[12, 13, 61]",121131612,Pm2Mg1Al1
Sm2MgAl,mp-867894,0.0,3.88178609,0.0,False,"{62: 2, 12: 1, 13: 1}","[12, 13, 62]",121131622,Sm2Mg1Al1
Gd2MgAl,mp-1184333,0.0,3.88885122,0.0,False,"{64: 2, 12: 1, 13: 1}","[12, 13, 64]",121131642,Gd2Mg1Al1
Dy2MgAl,mp-865006,0.0,4.04161871,0.0,False,"{66: 2, 12: 1, 13: 1}","[12, 13, 66]",121131662,Dy2Mg1Al1
Ho2MgAl,mp-867277,0.0,3.99149949,0.0,False,"{67: 2, 12: 1, 13: 1}","[12, 13, 67]",121131672,Ho2Mg1Al1
Er2MgAl,mp-861946,0.0,4.04008292,0.0,False,"{68: 2, 12: 1, 13: 1}","[12, 13, 68]",121131682,Er2Mg1Al1
Tm2MgAl,mp-865356,0.0,4.02576024,0.0,False,"{69: 2, 12: 1, 13: 1}","[12, 13, 69]",121131692,Tm2Mg1Al1
Lu2MgAl,mp-865238,0.0,3.85106742,0.0,False,"{71: 2, 12: 1, 13: 1}","[12, 13, 71]",121131712,Lu2Mg1Al1
MgAlIr2,mp-865921,0.0,7.9310992,0.0,False,"{12: 1, 13: 1, 77: 2}","[12, 13, 77]",121131772,Mg1Al1Ir2
MgAl2,mp-1094116,0.0,6.02951139,0.0,False,"{12: 1, 13: 2}","[12, 13]",121132,Mg1Al2
Mg(AlGe)2,mp-1232292,0.0,4.91033005,0.0,False,"{12: 1, 13: 2, 32: 2}","[12, 13, 32]",121132322,Mg1Al2Ge2
MgSiRh2,mp-866087,0.0,8.38516166,0.0,False,"{12: 1, 14: 1, 45: 2}","[12, 14, 45]",121141452,Mg1Si1Rh2
Pm2MgSi,mp-863696,0.0,4.72282169,0.0,False,"{61: 2, 12: 1, 14: 1}","[12, 14, 61]",121141612,Pm2Mg1Si1
MgSiIr2,mp-866086,0.0,10.02761156,0.0,False,"{12: 1, 14: 1, 77: 2}","[12, 14, 77]",121141772,Mg1Si1Ir2
La6Mg(SiS7)2,mp-1223141,1.9699,5.29862965,0.0,False,"{57: 6, 12: 1, 14: 2, 16: 14}","[12, 14, 16, 57]",1211421614576,La6Mg1Si2S14
MgAg2(PS3)2,mp-1222065,2.2038,4.96990007,0.0,False,"{12: 1, 47: 2, 15: 2, 16: 6}","[12, 15, 16, 47]",121152166472,Mg1Ag2P2S6
La6Mg(GeS7)2,mp-1223466,2.0085999999999995,5.03139795,0.0,False,"{57: 6, 12: 1, 32: 2, 16: 14}","[12, 16, 32, 57]",1211614322576,La6Mg1Ge2S14
Pr6Mg(GeS7)2,mp-1219872,2.0221999999999998,3.46110313,0.0,False,"{59: 6, 12: 1, 32: 2, 16: 14}","[12, 16, 32, 59]",1211614322596,Pr6Mg1Ge2S14
Nd6Mg(GeS7)2,mp-1220243,2.073,3.47308045,0.0,False,"{60: 6, 12: 1, 32: 2, 16: 14}","[12, 16, 32, 60]",1211614322606,Nd6Mg1Ge2S14
Sm6Mg(GeS7)2,mp-1219149,2.0667,3.52437438,0.0,False,"{62: 6, 12: 1, 32: 2, 16: 14}","[12, 16, 32, 62]",1211614322626,Sm6Mg1Ge2S14
Tb6Mg(GeS7)2,mp-1217642,2.1789,3.70030376,0.0,False,"{65: 6, 12: 1, 32: 2, 16: 14}","[12, 16, 32, 65]",1211614322656,Tb6Mg1Ge2S14
MgS2,mp-1185959,1.1336999999999997,3.79466102,0.0,False,"{12: 1, 16: 2}","[12, 16]",121162,Mg1S2
Mg(CrS2)2,mp-1400392,0.9995000000000003,4.21175219,0.0,False,"{12: 1, 24: 2, 16: 4}","[12, 16, 24]",121164242,Mg1Cr2S4
Ho2MgS4,mp-1232270,1.9659000000000002,1.9887078,0.0,False,"{67: 2, 12: 1, 16: 4}","[12, 16, 67]",121164672,Ho2Mg1S4
Er2MgS4,mp-1232129,2.0129,1.98707065,0.0,False,"{68: 2, 12: 1, 16: 4}","[12, 16, 68]",121164682,Er2Mg1S4
Tm2MgS4,mp-1232279,2.0584,1.99887332,0.0,False,"{69: 2, 12: 1, 16: 4}","[12, 16, 69]",121164692,Tm2Mg1S4
CaMgCd2,mp-1183548,0.0,2.89781988,0.0,False,"{20: 1, 12: 1, 48: 2}","[12, 20, 48]",121201482,Ca1Mg1Cd2
CaMgHg2,mp-867144,0.0,3.38237586,0.0,False,"{20: 1, 12: 1, 80: 2}","[12, 20, 80]",121201802,Ca1Mg1Hg2
CaMgTl2,mp-867266,0.0,5.39455107,0.0,False,"{20: 1, 12: 1, 81: 2}","[12, 20, 81]",121201812,Ca1Mg1Tl2
Ca2MgIn,mp-867350,0.0,3.79988433,0.0,False,"{20: 2, 12: 1, 49: 1}","[12, 20, 49]",121202491,Ca2Mg1In1
Ca2MgTl,mp-861645,0.0,3.83200091,0.0,False,"{20: 2, 12: 1, 81: 1}","[12, 20, 81]",121202811,Ca2Mg1Tl1
MgScZn2,mp-1185961,0.0,3.73860059,0.0,False,"{12: 1, 21: 1, 30: 2}","[12, 21, 30]",121211302,Mg1Sc1Zn2
MgScRh2,mp-866069,0.0,5.35290666,0.0,False,"{12: 1, 21: 1, 45: 2}","[12, 21, 45]",121211452,Mg1Sc1Rh2
MgScPd2,mp-977566,0.0,5.00690362,0.0,False,"{12: 1, 21: 1, 46: 2}","[12, 21, 46]",121211462,Mg1Sc1Pd2
MgScAg2,mp-977554,0.0,3.92349174,0.0,False,"{12: 1, 21: 1, 47: 2}","[12, 21, 47]",121211472,Mg1Sc1Ag2
MgScCd2,mp-977556,0.0,3.80170366,0.0,False,"{12: 1, 21: 1, 48: 2}","[12, 21, 48]",121211482,Mg1Sc1Cd2
MgScPt2,mp-1185958,0.0,6.16455529,0.0,False,"{12: 1, 21: 1, 78: 2}","[12, 21, 78]",121211782,Mg1Sc1Pt2
MgScAu2,mp-1185960,0.0,5.12350532,0.0,False,"{12: 1, 21: 1, 79: 2}","[12, 21, 79]",121211792,Mg1Sc1Au2
MgScHg2,mp-977564,0.0,4.37765153,0.0,False,"{12: 1, 21: 1, 80: 2}","[12, 21, 80]",121211802,Mg1Sc1Hg2
MgSc2,mp-864941,0.0,3.56926408,0.0,False,"{12: 1, 21: 2}","[12, 21]",121212,Mg1Sc2
MgSc2Cd,mp-866077,0.0,3.60034127,0.0,False,"{12: 1, 21: 2, 48: 1}","[12, 21, 48]",121212481,Mg1Sc2Cd1
MgSc2In,mp-977586,0.0,5.2465292,0.0,False,"{12: 1, 21: 2, 49: 1}","[12, 21, 49]",121212491,Mg1Sc2In1
MgSc2Hg,mp-1185964,0.0,4.11787633,0.0,False,"{12: 1, 21: 2, 80: 1}","[12, 21, 80]",121212801,Mg1Sc2Hg1
MgSc2Tl,mp-866080,0.0,5.32309278,0.0,False,"{12: 1, 21: 2, 81: 1}","[12, 21, 81]",121212811,Mg1Sc2Tl1
MgTiRh2,mp-864919,0.0,6.51348289,0.0,False,"{12: 1, 22: 1, 45: 2}","[12, 22, 45]",121221452,Mg1Ti1Rh2
MgTiIr2,mp-864908,0.013099999999999667,7.91309182,0.0,False,"{12: 1, 22: 1, 77: 2}","[12, 22, 77]",121221772,Mg1Ti1Ir2
MgVRu2,mp-1185620,0.0,6.46933112,0.0,False,"{12: 1, 23: 1, 44: 2}","[12, 23, 44]",121231442,Mg1V1Ru2
MgMnRh2,mp-977463,0.0,5.63749089,0.0,False,"{12: 1, 25: 1, 45: 2}","[12, 25, 45]",121251452,Mg1Mn1Rh2
MgMnPd2,mp-1185892,0.0,5.08195077,0.0,False,"{12: 1, 25: 1, 46: 2}","[12, 25, 46]",121251462,Mg1Mn1Pd2
MgMnPt2,mp-976406,0.0,6.1067674,0.0,False,"{12: 1, 25: 1, 78: 2}","[12, 25, 78]",121251782,Mg1Mn1Pt2
MgFeRh2,mp-865187,0.0,5.49059682,0.0,False,"{12: 1, 26: 1, 45: 2}","[12, 26, 45]",121261452,Mg1Fe1Rh2
MgZnCo,mp-1221921,0.0,4.13631387,0.0,False,"{12: 1, 30: 1, 27: 1}","[12, 27, 30]",121271301,Mg1Zn1Co1
Pr3MgNi14,mp-1219896,0.0,6.26816316,0.0,False,"{59: 3, 12: 1, 28: 14}","[12, 28, 59]",1212814593,Pr3Mg1Ni14
MgGaNi2,mp-865092,0.0,6.39070758,0.0,False,"{12: 1, 31: 1, 28: 2}","[12, 28, 31]",121282311,Mg1Ga1Ni2
Y2MgNi2,mp-754185,0.0,4.47743593,0.0,False,"{39: 2, 12: 1, 28: 2}","[12, 28, 39]",121282392,Y2Mg1Ni2
MgZnCu,mp-1221951,0.0,4.35713388,0.0,False,"{12: 1, 30: 1, 29: 1}","[12, 29, 30]",121291301,Mg1Zn1Cu1
MgGaCu,mp-1222023,0.0,5.1482445,0.0,False,"{12: 1, 31: 1, 29: 1}","[12, 29, 31]",121291311,Mg1Ga1Cu1
MgZnRh2,mp-977547,0.0,4.66883547,0.0,False,"{12: 1, 30: 1, 45: 2}","[12, 30, 45]",121301452,Mg1Zn1Rh2
MgZnPd2,mp-864923,0.0,4.74611608,0.0,False,"{12: 1, 30: 1, 46: 2}","[12, 30, 46]",121301462,Mg1Zn1Pd2
MgZnAu2,mp-864922,0.0,5.24623769,0.0,False,"{12: 1, 30: 1, 79: 2}","[12, 30, 79]",121301792,Mg1Zn1Au2
YMgZn2,mp-865515,0.0,3.43124705,0.0,False,"{39: 1, 12: 1, 30: 2}","[12, 30, 39]",121302391,Y1Mg1Zn2
LaMgZn2,mp-862662,0.0,5.02023916,0.0,False,"{57: 1, 12: 1, 30: 2}","[12, 30, 57]",121302571,La1Mg1Zn2
PrMgZn2,mp-862759,0.0,3.37084573,0.0,False,"{59: 1, 12: 1, 30: 2}","[12, 30, 59]",121302591,Pr1Mg1Zn2
NdMgZn2,mp-864925,0.0,3.46499708,0.0,False,"{60: 1, 12: 1, 30: 2}","[12, 30, 60]",121302601,Nd1Mg1Zn2
PmMgZn2,mp-862937,0.0,3.45231079,0.0,False,"{61: 1, 12: 1, 30: 2}","[12, 30, 61]",121302611,Pm1Mg1Zn2
SmMgZn2,mp-867871,0.0,3.28507031,0.0,False,"{62: 1, 12: 1, 30: 2}","[12, 30, 62]",121302621,Sm1Mg1Zn2
EuMgZn2,mp-1184328,0.0,2.64378507,0.0,False,"{63: 1, 12: 1, 30: 2}","[12, 30, 63]",121302631,Eu1Mg1Zn2
GdMgZn2,mp-865883,0.0,3.20298779,0.0,False,"{64: 1, 12: 1, 30: 2}","[12, 30, 64]",121302641,Gd1Mg1Zn2
TbMgZn2,mp-1187349,0.0,3.44812054,0.0,False,"{65: 1, 12: 1, 30: 2}","[12, 30, 65]",121302651,Tb1Mg1Zn2
DyMgZn2,mp-865142,0.0,3.52834682,0.0,False,"{66: 1, 12: 1, 30: 2}","[12, 30, 66]",121302661,Dy1Mg1Zn2
HoMgZn2,mp-861981,0.0,3.5481678,0.0,False,"{67: 1, 12: 1, 30: 2}","[12, 30, 67]",121302671,Ho1Mg1Zn2
ErMgZn2,mp-977433,0.0,3.55776794,0.0,False,"{68: 1, 12: 1, 30: 2}","[12, 30, 68]",121302681,Er1Mg1Zn2
TmMgZn2,mp-865233,0.0,3.21394282,0.0,False,"{69: 1, 12: 1, 30: 2}","[12, 30, 69]",121302691,Tm1Mg1Zn2
LuMgZn2,mp-865256,0.0,3.24218033,0.0,False,"{71: 1, 12: 1, 30: 2}","[12, 30, 71]",121302711,Lu1Mg1Zn2
MgZn2Ir,mp-1185621,0.0,5.22391043,0.0,False,"{12: 1, 30: 2, 77: 1}","[12, 30, 77]",121302771,Mg1Zn2Ir1
AcMgZn2,mp-1183182,0.0,4.26011571,0.0,False,"{89: 1, 12: 1, 30: 2}","[12, 30, 89]",121302891,Ac1Mg1Zn2
MgGaRh2,mp-865125,0.0,6.06565137,0.0,False,"{12: 1, 31: 1, 45: 2}","[12, 31, 45]",121311452,Mg1Ga1Rh2
MgGaPd2,mp-865123,0.0,5.29738278,0.0,False,"{12: 1, 31: 1, 46: 2}","[12, 31, 46]",121311462,Mg1Ga1Pd2
MgGaAg2,mp-865183,0.0,4.92876419,0.0,False,"{12: 1, 31: 1, 47: 2}","[12, 31, 47]",121311472,Mg1Ga1Ag2
Pm2MgGa,mp-863705,0.0,3.51737529,0.0,False,"{61: 2, 12: 1, 31: 1}","[12, 31, 61]",121311612,Pm2Mg1Ga1
MgGaIr2,mp-865186,0.0,6.94547402,0.0,False,"{12: 1, 31: 1, 77: 2}","[12, 31, 77]",121311772,Mg1Ga1Ir2
MgGaPt2,mp-1185861,0.0,6.56948468,0.0,False,"{12: 1, 31: 1, 78: 2}","[12, 31, 78]",121311782,Mg1Ga1Pt2
Ac2MgGa,mp-1183074,0.2016,5.3624553,0.0,False,"{89: 2, 12: 1, 31: 1}","[12, 31, 89]",121311892,Ac2Mg1Ga1
EuMgGa3,mp-1225137,0.0,3.41600699,0.0,False,"{63: 1, 12: 1, 31: 3}","[12, 31, 63]",121313631,Eu1Mg1Ga3
MgGeRh2,mp-865162,0.0,6.88638477,0.0,False,"{12: 1, 32: 1, 45: 2}","[12, 32, 45]",121321452,Mg1Ge1Rh2
Pm2MgGe,mp-1186475,0.0,4.02590337,0.0,False,"{61: 2, 12: 1, 32: 1}","[12, 32, 61]",121321612,Pm2Mg1Ge1
MgSnAs2,mp-1009082,0.1863999999999999,3.16189465,0.0,False,"{12: 1, 50: 1, 33: 2}","[12, 33, 50]",121332501,Mg1Sn1As2
Mg(InSe2)2,mp-1006591,0.7980999999999998,3.2577543,0.0,False,"{12: 1, 49: 2, 34: 4}","[12, 34, 49]",121344492,Mg1In2Se4
Dy2MgSe4,mp-1232083,1.2873999999999999,1.65735622,0.0,False,"{66: 2, 12: 1, 34: 4}","[12, 34, 66]",121344662,Dy2Mg1Se4
SrMgTl2,mp-867172,0.0,4.85849165,0.0,False,"{38: 1, 12: 1, 81: 2}","[12, 38, 81]",121381812,Sr1Mg1Tl2
Sr2MgTl,mp-1187092,0.0,3.08710187,0.0,False,"{38: 2, 12: 1, 81: 1}","[12, 38, 81]",121382811,Sr2Mg1Tl1
YMgRh2,mp-866165,0.0,4.80845585,0.0,False,"{39: 1, 12: 1, 45: 2}","[12, 39, 45]",121391452,Y1Mg1Rh2
YMgAg2,mp-866162,0.0,3.56072176,0.0,False,"{39: 1, 12: 1, 47: 2}","[12, 39, 47]",121391472,Y1Mg1Ag2
YMgCd2,mp-865512,0.0,3.38582951,0.0,False,"{39: 1, 12: 1, 48: 2}","[12, 39, 48]",121391482,Y1Mg1Cd2
YMgAu2,mp-866171,0.0,4.6093134,0.0,False,"{39: 1, 12: 1, 79: 2}","[12, 39, 79]",121391792,Y1Mg1Au2
YMgHg2,mp-866164,0.0,3.99366029,0.0,False,"{39: 1, 12: 1, 80: 2}","[12, 39, 80]",121391802,Y1Mg1Hg2
MgZrRh2,mp-864910,0.0,5.78135455,0.0,False,"{12: 1, 40: 1, 45: 2}","[12, 40, 45]",121401452,Mg1Zr1Rh2
MgZrPd2,mp-864907,0.0,4.78148992,0.0,False,"{12: 1, 40: 1, 46: 2}","[12, 40, 46]",121401462,Mg1Zr1Pd2
MgZrIr2,mp-864921,0.0,6.89871709,0.0,False,"{12: 1, 40: 1, 77: 2}","[12, 40, 77]",121401772,Mg1Zr1Ir2
MgZrPt2,mp-1185625,0.0,6.02471073,0.0,False,"{12: 1, 40: 1, 78: 2}","[12, 40, 78]",121401782,Mg1Zr1Pt2
MgZrAu2,mp-864920,0.0,5.12415913,0.0,False,"{12: 1, 40: 1, 79: 2}","[12, 40, 79]",121401792,Mg1Zr1Au2
MgNbRu2,mp-977430,0.0,6.51119518,0.0,False,"{12: 1, 41: 1, 44: 2}","[12, 41, 44]",121411442,Mg1Nb1Ru2
MgNbRh2,mp-977555,0.0,6.3009564,0.0,False,"{12: 1, 41: 1, 45: 2}","[12, 41, 45]",121411452,Mg1Nb1Rh2
MgPaTc2,mp-1185915,0.0,8.92528332,0.0,False,"{12: 1, 91: 1, 43: 2}","[12, 43, 91]",121432911,Mg1Pa1Tc2
Pm2MgRu,mp-1186472,0.0,4.22593295,0.0,False,"{61: 2, 12: 1, 44: 1}","[12, 44, 61]",121441612,Pm2Mg1Ru1
MgTaRu2,mp-864903,0.0,6.28451213,0.0,False,"{12: 1, 73: 1, 44: 2}","[12, 44, 73]",121442731,Mg1Ta1Ru2
MgRu2W,mp-1185943,0.0,7.1838159,0.0,False,"{12: 1, 44: 2, 74: 1}","[12, 44, 74]",121442741,Mg1Ru2W1
MgPaRu2,mp-977558,0.0,8.87737621,0.0,False,"{12: 1, 91: 1, 44: 2}","[12, 44, 91]",121442911,Mg1Pa1Ru2
MgInRh2,mp-977438,0.0,7.18753098,0.0,False,"{12: 1, 49: 1, 45: 2}","[12, 45, 49]",121452491,Mg1In1Rh2
MgSnRh2,mp-866073,0.0,8.234028,0.0,False,"{12: 1, 50: 1, 45: 2}","[12, 45, 50]",121452501,Mg1Sn1Rh2
PmMgRh2,mp-862941,0.0,4.81990016,0.0,False,"{61: 1, 12: 1, 45: 2}","[12, 45, 61]",121452611,Pm1Mg1Rh2
SmMgRh2,mp-867240,0.0,4.82078789,0.0,False,"{62: 1, 12: 1, 45: 2}","[12, 45, 62]",121452621,Sm1Mg1Rh2
GdMgRh2,mp-866059,0.0,4.78042816,0.0,False,"{64: 1, 12: 1, 45: 2}","[12, 45, 64]",121452641,Gd1Mg1Rh2
TbMgRh2,mp-977396,0.0,5.03562791,0.0,False,"{65: 1, 12: 1, 45: 2}","[12, 45, 65]",121452651,Tb1Mg1Rh2
DyMgRh2,mp-867831,0.0,5.01809853,0.0,False,"{66: 1, 12: 1, 45: 2}","[12, 45, 66]",121452661,Dy1Mg1Rh2
HoMgRh2,mp-864744,0.0,4.79757786,0.0,False,"{67: 1, 12: 1, 45: 2}","[12, 45, 67]",121452671,Ho1Mg1Rh2
ErMgRh2,mp-1184217,0.0,4.83320672,0.0,False,"{68: 1, 12: 1, 45: 2}","[12, 45, 68]",121452681,Er1Mg1Rh2
TmMgRh2,mp-865230,0.0,4.81989313,0.0,False,"{69: 1, 12: 1, 45: 2}","[12, 45, 69]",121452691,Tm1Mg1Rh2
LuMgRh2,mp-865271,0.0,4.82576239,0.0,False,"{71: 1, 12: 1, 45: 2}","[12, 45, 71]",121452711,Lu1Mg1Rh2
HfMgRh2,mp-865050,0.0,6.17357447,0.0,False,"{72: 1, 12: 1, 45: 2}","[12, 45, 72]",121452721,Hf1Mg1Rh2
MgTaRh2,mp-866072,0.0,6.61657213,0.0,False,"{12: 1, 73: 1, 45: 2}","[12, 45, 73]",121452731,Mg1Ta1Rh2
MgTlRh2,mp-864902,0.0,6.68063346,0.0,False,"{12: 1, 81: 1, 45: 2}","[12, 45, 81]",121452811,Mg1Tl1Rh2
MgRh2Pb,mp-977571,0.0,7.75025952,0.0,False,"{12: 1, 45: 2, 82: 1}","[12, 45, 82]",121452821,Mg1Rh2Pb1
MgPaRh2,mp-977441,0.0,8.05748606,0.0,False,"{12: 1, 91: 1, 45: 2}","[12, 45, 91]",121452911,Mg1Pa1Rh2
MgRh3,mp-865611,0.0,6.16099403,0.0,False,"{12: 1, 45: 3}","[12, 45]",121453,Mg1Rh3
MgInPd2,mp-865043,0.0,6.54466974,0.0,False,"{12: 1, 49: 1, 46: 2}","[12, 46, 49]",121462491,Mg1In1Pd2
MgSnPd2,mp-864883,0.0,7.49661272,0.0,False,"{12: 1, 50: 1, 46: 2}","[12, 46, 50]",121462501,Mg1Sn1Pd2
TmMgPd2,mp-1187590,0.0,4.50028978,0.0,False,"{69: 1, 12: 1, 46: 2}","[12, 46, 69]",121462691,Tm1Mg1Pd2
LuMgPd2,mp-865253,0.0,4.48084674,0.0,False,"{71: 1, 12: 1, 46: 2}","[12, 46, 71]",121462711,Lu1Mg1Pd2
HfMgPd2,mp-865049,0.0,5.29328423,0.0,False,"{72: 1, 12: 1, 46: 2}","[12, 46, 72]",121462721,Hf1Mg1Pd2
MgPd2Au,mp-1185923,0.0,4.74649238,0.0,False,"{12: 1, 46: 2, 79: 1}","[12, 46, 79]",121462791,Mg1Pd2Au1
MgHgPd2,mp-1185884,0.0,4.61244936,0.0,False,"{12: 1, 80: 1, 46: 2}","[12, 46, 80]",121462801,Mg1Hg1Pd2
MgPd5,mp-976976,0.0,4.41172721,0.0,False,"{12: 1, 46: 5}","[12, 46]",121465,Mg1Pd5
PrMgAg2,mp-975892,0.0,3.41438001,0.0,False,"{59: 1, 12: 1, 47: 2}","[12, 47, 59]",121472591,Pr1Mg1Ag2
NdMgAg2,mp-866074,0.0,3.42043651,0.0,False,"{60: 1, 12: 1, 47: 2}","[12, 47, 60]",121472601,Nd1Mg1Ag2
PmMgAg2,mp-862936,0.0,3.41614403,0.0,False,"{61: 1, 12: 1, 47: 2}","[12, 47, 61]",121472611,Pm1Mg1Ag2
SmMgAg2,mp-867862,0.0,3.42940498,0.0,False,"{62: 1, 12: 1, 47: 2}","[12, 47, 62]",121472621,Sm1Mg1Ag2
GdMgAg2,mp-1184490,0.0,3.35064304,0.0,False,"{64: 1, 12: 1, 47: 2}","[12, 47, 64]",121472641,Gd1Mg1Ag2
DyMgAg2,mp-862680,0.0,3.54178799,0.0,False,"{66: 1, 12: 1, 47: 2}","[12, 47, 66]",121472661,Dy1Mg1Ag2
HoMgAg2,mp-1184818,0.0,3.51587279,0.0,False,"{67: 1, 12: 1, 47: 2}","[12, 47, 67]",121472671,Ho1Mg1Ag2
ErMgAg2,mp-1184233,0.0,3.53251978,0.0,False,"{68: 1, 12: 1, 47: 2}","[12, 47, 68]",121472681,Er1Mg1Ag2
TmMgAg2,mp-971868,0.0,3.57732761,0.0,False,"{69: 1, 12: 1, 47: 2}","[12, 47, 69]",121472691,Tm1Mg1Ag2
LuMgAg2,mp-1185500,0.0,3.53227233,0.0,False,"{71: 1, 12: 1, 47: 2}","[12, 47, 71]",121472711,Lu1Mg1Ag2
MgAg3,mp-864934,0.0,3.61833293,0.0,False,"{12: 1, 47: 3}","[12, 47]",121473,Mg1Ag3
Pm2MgCd,mp-1186474,0.0,3.15921862,0.0,False,"{61: 2, 12: 1, 48: 1}","[12, 48, 61]",121481612,Pm2Mg1Cd1
MgCdAu2,mp-1222015,0.0,4.40455697,0.0,False,"{12: 1, 48: 1, 79: 2}","[12, 48, 79]",121481792,Mg1Cd1Au2
LaMgCd2,mp-867848,0.0,4.68246492,0.0,False,"{57: 1, 12: 1, 48: 2}","[12, 48, 57]",121482571,La1Mg1Cd2
CeMgCd2,mp-1183727,0.0,4.43903311,0.0,False,"{58: 1, 12: 1, 48: 2}","[12, 48, 58]",121482581,Ce1Mg1Cd2
PrMgCd2,mp-867178,0.0,3.28787805,0.0,False,"{59: 1, 12: 1, 48: 2}","[12, 48, 59]",121482591,Pr1Mg1Cd2
NdMgCd2,mp-866065,0.0,3.29844752,0.0,False,"{60: 1, 12: 1, 48: 2}","[12, 48, 60]",121482601,Nd1Mg1Cd2
PmMgCd2,mp-862939,0.0,3.46302507,0.0,False,"{61: 1, 12: 1, 48: 2}","[12, 48, 61]",121482611,Pm1Mg1Cd2
SmMgCd2,mp-867131,0.0,3.28565542,0.0,False,"{62: 1, 12: 1, 48: 2}","[12, 48, 62]",121482621,Sm1Mg1Cd2
EuMgCd2,mp-1184290,0.0,2.58858434,0.0,False,"{63: 1, 12: 1, 48: 2}","[12, 48, 63]",121482631,Eu1Mg1Cd2
GdMgCd2,mp-865590,0.0,3.11982036,0.0,False,"{64: 1, 12: 1, 48: 2}","[12, 48, 64]",121482641,Gd1Mg1Cd2
TbMgCd2,mp-862767,0.0,3.33346199,0.0,False,"{65: 1, 12: 1, 48: 2}","[12, 48, 65]",121482651,Tb1Mg1Cd2
DyMgCd2,mp-867773,0.0,3.52393054,0.0,False,"{66: 1, 12: 1, 48: 2}","[12, 48, 66]",121482661,Dy1Mg1Cd2
HoMgCd2,mp-1184816,0.0,3.30401939,0.0,False,"{67: 1, 12: 1, 48: 2}","[12, 48, 67]",121482671,Ho1Mg1Cd2
ErMgCd2,mp-863672,0.0,3.30057273,0.0,False,"{68: 1, 12: 1, 48: 2}","[12, 48, 68]",121482681,Er1Mg1Cd2
TmMgCd2,mp-865227,0.0,3.44678613,0.0,False,"{69: 1, 12: 1, 48: 2}","[12, 48, 69]",121482691,Tm1Mg1Cd2
LuMgCd2,mp-865223,0.0,3.43817059,0.0,False,"{71: 1, 12: 1, 48: 2}","[12, 48, 71]",121482711,Lu1Mg1Cd2
AcMgCd2,mp-865979,0.0,4.11290631,0.0,False,"{89: 1, 12: 1, 48: 2}","[12, 48, 89]",121482891,Ac1Mg1Cd2
Pr2MgIn,mp-1186729,0.0,4.42442869,0.0,False,"{59: 2, 12: 1, 49: 1}","[12, 49, 59]",121491592,Pr2Mg1In1
Nd2MgIn,mp-864612,0.0,4.38732605,0.0,False,"{60: 2, 12: 1, 49: 1}","[12, 49, 60]",121491602,Nd2Mg1In1
Sm2MgIn,mp-1187179,0.0,4.37367069,0.0,False,"{62: 2, 12: 1, 49: 1}","[12, 49, 62]",121491622,Sm2Mg1In1
Eu2MgIn,mp-1184025,0.0,3.26558197,0.0,False,"{63: 2, 12: 1, 49: 1}","[12, 49, 63]",121491632,Eu2Mg1In1
Gd2MgIn,mp-864748,0.0,4.44121347,0.0,False,"{64: 2, 12: 1, 49: 1}","[12, 49, 64]",121491642,Gd2Mg1In1
Dy2MgIn,mp-865007,0.0,4.61793764,0.0,False,"{66: 2, 12: 1, 49: 1}","[12, 49, 66]",121491662,Dy2Mg1In1
Ho2MgIn,mp-977392,0.0,4.41170908,0.0,False,"{67: 2, 12: 1, 49: 1}","[12, 49, 67]",121491672,Ho2Mg1In1
Er2MgIn,mp-863702,0.0,4.61864771,0.0,False,"{68: 2, 12: 1, 49: 1}","[12, 49, 68]",121491682,Er2Mg1In1
Tm2MgIn,mp-865359,0.0,4.45408556,0.0,False,"{69: 2, 12: 1, 49: 1}","[12, 49, 69]",121491692,Tm2Mg1In1
Lu2MgIn,mp-865240,0.0,4.64902857,0.0,False,"{71: 2, 12: 1, 49: 1}","[12, 49, 71]",121491712,Lu2Mg1In1
Mg(InTe2)2,mp-1222182,1.4769,3.2255144,0.0,False,"{12: 1, 49: 2, 52: 4}","[12, 49, 52]",121492524,Mg1In2Te4
BaMgIn3,mp-1227881,0.0,4.89567161,0.0,False,"{56: 1, 12: 1, 49: 3}","[12, 49, 56]",121493561,Ba1Mg1In3
Pm2MgSn,mp-863703,0.0,4.97503098,0.0,False,"{61: 2, 12: 1, 50: 1}","[12, 50, 61]",121501612,Pm2Mg1Sn1
MgSnIr2,mp-864906,0.0,9.48371026,0.0,False,"{12: 1, 50: 1, 77: 2}","[12, 50, 77]",121501772,Mg1Sn1Ir2
Ac2MgSn,mp-866103,0.0,6.33678949,0.0,False,"{89: 2, 12: 1, 50: 1}","[12, 50, 89]",121501892,Ac2Mg1Sn1